LAMMPS Description

     10  atoms
     5  bonds
     0  angles
     0  dihedrals
     0  impropers

     6  atom types
     3  bond types

  0.0 4.01 xlo xhi
  0.0 4.01 ylo yhi
  0.0 4.01 zlo zhi

Masses

      1		135.327
      2	002.000
      3		045.867
      4	002.000
      5	013.9994
      6	002.0000

Atoms # full

1 1 1 05.042 0.0 0.0 0.0
2 1 2 -2.870 0.0 0.0 0.0
3 2 3 04.616 2.005 2.005 2.005
4 2 4 -1.544 2.005 2.005 2.005
5 3 5 00.970 0.0 2.005 2.005
6 3 6 -2.718 0.0 2.005 2.005
7 4 5 00.970 2.005 0.0 2.005
8 4 6 -2.718 2.005 0.0 2.005
9 5 5 00.970 2.005 2.005 0.0
10 5 6 -2.718 2.005 2.005 0.0

Bonds

1 1 1 2
2 2 3 4
3 3 5 6
4 3 7 8
5 3 9 10


CS-Info

      1	1
      2	1
      3	2
      4	2
      5	3
      6	3
      7	4
      8	4
      9	5
      10	5

