ITEM: TIMESTEP
0
ITEM: NUMBER OF ATOMS
10
ITEM: BOX BOUNDS xy xz yz pp pp ss
0.0000000000000000e+00 4.0365952783983996e+00 1.3297639199200000e-02
0.0000000000000000e+00 4.0232976391991997e+00 1.3297639199200000e-02
-1.0029412042728328e-03 2.0060029412042728e+00 1.3297639199200000e-02
ITEM: ATOMS id type xs ys zs
1 1 3.30248e-07 3.31347e-07 0.0001
2 2 3.30248e-07 3.31347e-07 0.0001
3 3 0.5 0.5 0.9999
4 4 0.5 0.5 0.9999
7 5 0.5 1 0.9999
8 6 0.5 1 0.9999
5 5 1 0.5 0.9999
6 6 1 0.5 0.9999
9 5 0.5 0.5 0.0001
10 6 0.5 0.5 0.0001
ITEM: TIMESTEP
1000
ITEM: NUMBER OF ATOMS
10
ITEM: BOX BOUNDS xy xz yz pp pp ss
0.0000000000000000e+00 4.0365952783983996e+00 1.3297639199200000e-02
0.0000000000000000e+00 4.0232976391991997e+00 1.3297639199200000e-02
-1.0029412042728328e-03 2.0060029412042728e+00 1.3297639199200000e-02
ITEM: ATOMS id type xs ys zs
1 1 -0.00580513 -0.00580188 0.0399553
2 2 -0.00531472 -0.00531105 0.0143883
3 3 0.473383 0.473373 0.927161
4 4 0.484578 0.484571 0.957262
7 5 0.504761 1.01334 1.01447
8 6 0.502563 1.03439 0.983627
5 5 1.01334 0.504759 1.01447
6 6 1.03439 0.502561 0.983631
9 5 0.499576 0.499581 0.00241482
10 6 0.498533 0.498537 0.0624234
ITEM: TIMESTEP
1296
ITEM: NUMBER OF ATOMS
10
ITEM: BOX BOUNDS xy xz yz pp pp ss
0.0000000000000000e+00 4.0365952783983996e+00 1.3297639199200000e-02
0.0000000000000000e+00 4.0232976391991997e+00 1.3297639199200000e-02
-1.0029412042728328e-03 2.0060029412042728e+00 1.3297639199200000e-02
ITEM: ATOMS id type xs ys zs
1 1 -0.00584109 -0.00583663 0.039932
2 2 -0.00534932 -0.00534449 0.0143682
3 3 0.473376 0.473368 0.927169
4 4 0.484582 0.484575 0.957261
7 5 0.504794 1.01336 1.0145
8 6 0.502592 1.03443 0.983656
5 5 1.01336 0.504791 1.0145
6 6 1.03443 0.502589 0.983659
9 5 0.499545 0.49955 0.00237681
10 6 0.498509 0.498514 0.0623796
ITEM: TIMESTEP
2000
ITEM: NUMBER OF ATOMS
10
ITEM: BOX BOUNDS xy xz yz pp pp ss
0.0000000000000000e+00 4.0365952783983996e+00 1.3297639199200000e-02
0.0000000000000000e+00 4.0232976391991997e+00 1.3297639199200000e-02
3.5666215179356500e-03 2.0353085723964814e+00 1.3297639199200000e-02
ITEM: ATOMS id type xs ys zs
9 5 0.499557 0.499563 9.55294e-05
10 6 0.498527 0.498532 0.0593638
3 3 0.47341 0.473403 0.913645
4 4 0.484626 0.48462 0.943366
5 5 0.0134308 0.504853 0.999913
6 6 0.0345054 0.502649 0.969453
7 5 0.504855 0.0134291 0.999908
8 6 0.502652 0.0345067 0.969449
1 1 0.99415 0.994155 0.0371735
2 2 0.994644 0.994649 0.0119246
