ITEM: TIMESTEP
0
ITEM: NUMBER OF ATOMS
10
ITEM: BOX BOUNDS xy xz yz pp pp ss
0.0000000000000000e+00 4.0365952783983996e+00 1.3297639199200000e-02
0.0000000000000000e+00 4.0232976391991997e+00 1.3297639199200000e-02
-1.0029412042728328e-03 2.0060029412042728e+00 1.3297639199200000e-02
ITEM: ATOMS id type c_dr[1] c_dr[2] c_dr[3] 
1 1 0 0 0 
2 2 0 0 0 
3 3 0 8.88178e-16 0 
4 4 0 8.88178e-16 0 
7 5 0 -1.77636e-15 0 
8 6 0 -1.77636e-15 0 
5 5 0 8.88178e-16 0 
6 6 0 8.88178e-16 0 
9 5 8.88178e-16 0 0 
10 6 8.88178e-16 0 0 
ITEM: TIMESTEP
1000
ITEM: NUMBER OF ATOMS
10
ITEM: BOX BOUNDS xy xz yz pp pp ss
0.0000000000000000e+00 4.0365952783983996e+00 1.3297639199200000e-02
0.0000000000000000e+00 4.0232976391991997e+00 1.3297639199200000e-02
-1.0029412042728328e-03 2.0060029412042728e+00 1.3297639199200000e-02
ITEM: ATOMS id type c_dr[1] c_dr[2] c_dr[3] 
1 1 -0.0228271 -0.0227369 0.0799898 
2 2 -0.021194 -0.0211086 0.0286767 
3 3 -0.108056 -0.107739 -0.145988 
4 4 -0.0626134 -0.062436 -0.0855745 
7 5 0.0194635 0.0536726 0.0292333 
8 6 0.0105218 0.1377 -0.0326602 
5 5 0.0537369 0.0192794 0.0292447 
6 6 0.137718 0.010056 -0.032651 
9 5 -0.00167562 -0.00165013 0.00464585 
10 6 -0.00507461 -0.00503788 0.125084 
ITEM: TIMESTEP
1296
ITEM: NUMBER OF ATOMS
10
ITEM: BOX BOUNDS xy xz yz pp pp ss
0.0000000000000000e+00 4.0365952783983996e+00 1.3297639199200000e-02
0.0000000000000000e+00 4.0232976391991997e+00 1.3297639199200000e-02
-1.0029412042728328e-03 2.0060029412042728e+00 1.3297639199200000e-02
ITEM: ATOMS id type c_dr[1] c_dr[2] c_dr[3] 
1 1 -0.022972 -0.0228765 0.0799431 
2 2 -0.0213334 -0.021243 0.0286363 
3 3 -0.108083 -0.10776 -0.145972 
4 4 -0.0625989 -0.0624191 -0.085577 
7 5 0.0195981 0.0537825 0.0292966 
8 6 0.0106367 0.137846 -0.0326026 
5 5 0.0538528 0.0194092 0.0293056 
6 6 0.137875 0.0101669 -0.0325949 
9 5 -0.00180275 -0.00177359 0.00456956 
10 6 -0.00517227 -0.0051323 0.124995 
ITEM: TIMESTEP
2000
ITEM: NUMBER OF ATOMS
10
ITEM: BOX BOUNDS xy xz yz pp pp ss
0.0000000000000000e+00 4.0365952783983996e+00 1.3297639199200000e-02
0.0000000000000000e+00 4.0232976391991997e+00 1.3297639199200000e-02
3.5666215179356500e-03 2.0353085723964814e+00 1.3297639199200000e-02
ITEM: ATOMS id type c_dr[1] c_dr[2] c_dr[3] 
9 5 -0.00178334 -0.00175385 0.00456295 
10 6 -0.00514109 -0.00510087 0.124981 
3 3 -0.108124 -0.1078 -0.145944 
4 4 -0.0626055 -0.0624256 -0.0855595 
5 5 0.0539234 0.0194602 0.0293292 
6 6 0.137998 0.0102196 -0.0325578 
7 5 0.0196498 0.0538523 0.0293203 
8 6 0.0106902 0.137968 -0.0325654 
1 1 -0.0230445 -0.0229485 0.0798958 
2 2 -0.0213945 -0.0213036 0.0285966 
