ITEM: TIMESTEP
0
ITEM: NUMBER OF ATOMS
10000
ITEM: BOX BOUNDS xy xz yz pp pp pp
0.0000000000000000e+00 4.0365952783984007e+01 1.3297639199200001e-01
0.0000000000000000e+00 4.0232976391992004e+01 1.3297639199200001e-01
0.0000000000000000e+00 4.0100000000000001e+01 1.3297639199200001e-01
ITEM: ATOMS id type c_dr[1] c_dr[2] c_dr[3] 
1 1 0 0 0 
2 2 0 0 0 
3 3 0 0 0 
4 4 0 0 0 
5 5 0 0 0 
6 6 0 0 0 
7 5 0 0 0 
8 6 0 0 0 
9 5 0 0 0 
10 6 0 0 0 
11 1 0 0 0 
12 2 0 0 0 
13 3 -4.44089e-16 -4.44089e-16 0 
14 4 -4.44089e-16 -4.44089e-16 0 
15 5 0 -4.44089e-16 0 
16 6 0 -4.44089e-16 0 
17 5 -4.44089e-16 0 0 
18 6 -4.44089e-16 0 0 
19 5 -4.44089e-16 0 0 
20 6 -4.44089e-16 0 0 
21 1 0 0 0 
22 2 0 0 0 
23 3 0 0 0 
24 4 0 0 0 
25 5 0 0 0 
26 6 0 0 0 
27 5 0 0 0 
28 6 0 0 0 
29 5 0 0 0 
30 6 0 0 0 
31 1 0 0 0 
32 2 0 0 0 
33 3 0 0 0 
34 4 0 0 0 
35 5 0 0 0 
36 6 0 0 0 
37 5 0 0 0 
38 6 0 0 0 
39 5 0 0 0 
40 6 0 0 0 
41 1 0 0 0 
42 2 0 0 0 
43 3 0 0 0 
44 4 0 0 0 
45 5 1.38778e-17 0 0 
46 6 1.38778e-17 0 0 
47 5 0 0 0 
48 6 0 0 0 
49 5 0 0 0 
50 6 0 0 0 
101 1 0 0 0 
102 2 0 0 0 
103 3 0 0 0 
104 4 0 0 0 
105 5 0 0 0 
106 6 0 0 0 
107 5 -4.44089e-16 0 0 
108 6 -4.44089e-16 0 0 
109 5 -4.44089e-16 0 0 
110 6 -4.44089e-16 0 0 
111 1 0 0 0 
112 2 0 0 0 
113 3 -4.44089e-16 0 0 
114 4 -4.44089e-16 0 0 
115 5 0 0 0 
116 6 0 0 0 
117 5 -4.44089e-16 0 0 
118 6 -4.44089e-16 0 0 
119 5 0 0 0 
120 6 0 0 0 
121 1 0 0 0 
122 2 0 0 0 
123 3 0 0 0 
124 4 0 0 0 
125 5 0 0 0 
126 6 0 0 0 
127 5 0 0 0 
128 6 0 0 0 
129 5 0 0 0 
130 6 0 0 0 
131 1 0 -8.88178e-16 0 
132 2 0 -8.88178e-16 0 
133 3 0 0 0 
134 4 0 0 0 
135 5 0 0 0 
136 6 0 0 0 
137 5 0 0 0 
138 6 0 0 0 
139 5 0 0 0 
140 6 0 0 0 
141 1 0 0 0 
142 2 0 0 0 
143 3 0 0 0 
144 4 0 0 0 
145 5 0 0 0 
146 6 0 0 0 
147 5 0 -8.88178e-16 0 
148 6 0 -8.88178e-16 0 
149 5 0 -1.77636e-15 0 
150 6 0 -1.77636e-15 0 
201 1 0 0 0 
202 2 0 0 0 
203 3 0 0 0 
204 4 0 0 0 
205 5 0 0 0 
206 6 0 0 0 
207 5 0 0 0 
208 6 0 0 0 
209 5 0 0 0 
210 6 0 0 0 
211 1 0 0 0 
212 2 0 0 0 
213 3 0 0 0 
214 4 0 0 0 
215 5 6.93889e-18 0 0 
216 6 6.93889e-18 0 0 
217 5 -4.44089e-16 0 0 
218 6 -4.44089e-16 0 0 
219 5 0 0 0 
220 6 0 0 0 
221 1 0 0 0 
222 2 0 0 0 
223 3 4.44089e-16 0 0 
224 4 4.44089e-16 0 0 
225 5 1.38778e-17 0 0 
226 6 1.38778e-17 0 0 
227 5 0 0 0 
228 6 0 0 0 
229 5 -4.44089e-16 0 0 
230 6 -4.44089e-16 0 0 
231 1 0 0 0 
232 2 0 0 0 
233 3 0 0 0 
234 4 0 0 0 
235 5 0 0 0 
236 6 0 0 0 
237 5 0 0 0 
238 6 0 0 0 
239 5 0 0 0 
240 6 0 0 0 
241 1 0 0 0 
242 2 0 0 0 
243 3 0 0 0 
244 4 0 0 0 
245 5 1.38778e-17 0 0 
246 6 1.38778e-17 0 0 
247 5 0 0 0 
248 6 0 0 0 
249 5 0 0 0 
250 6 0 0 0 
301 1 0 0 0 
302 2 0 0 0 
303 3 0 0 0 
304 4 0 0 0 
305 5 6.93889e-18 0 0 
306 6 6.93889e-18 0 0 
307 5 0 0 0 
308 6 0 0 0 
309 5 0 0 0 
310 6 0 0 0 
311 1 0 0 0 
312 2 0 0 0 
313 3 0 0 0 
314 4 0 0 0 
315 5 1.38778e-17 0 0 
316 6 1.38778e-17 0 0 
317 5 0 0 0 
318 6 0 0 0 
319 5 0 0 0 
320 6 0 0 0 
321 1 0 0 0 
322 2 0 0 0 
323 3 0 0 0 
324 4 0 0 0 
325 5 0 0 0 
326 6 0 0 0 
327 5 4.44089e-16 0 0 
328 6 4.44089e-16 0 0 
329 5 0 0 0 
330 6 0 0 0 
331 1 0 0 0 
332 2 0 0 0 
333 3 0 0 0 
334 4 0 0 0 
335 5 0 0 0 
336 6 0 0 0 
337 5 0 0 0 
338 6 0 0 0 
339 5 0 -1.77636e-15 0 
340 6 0 -1.77636e-15 0 
341 1 1.38778e-17 0 0 
342 2 1.38778e-17 0 0 
343 3 0 0 0 
344 4 0 0 0 
345 5 0 0 0 
346 6 0 0 0 
347 5 0 0 0 
348 6 0 0 0 
349 5 0 0 0 
350 6 0 0 0 
401 1 0 0 0 
402 2 0 0 0 
403 3 0 0 0 
404 4 0 0 0 
405 5 1.38778e-17 0 0 
406 6 1.38778e-17 0 0 
407 5 0 0 0 
408 6 0 0 0 
409 5 0 0 0 
410 6 0 0 0 
411 1 1.38778e-17 0 0 
412 2 1.38778e-17 0 0 
413 3 0 0 0 
414 4 0 0 0 
415 5 0 0 0 
416 6 0 0 0 
417 5 -4.44089e-16 0 0 
418 6 -4.44089e-16 0 0 
419 5 -4.44089e-16 0 0 
420 6 -4.44089e-16 0 0 
421 1 0 0 0 
422 2 0 0 0 
423 3 4.44089e-16 0 0 
424 4 4.44089e-16 0 0 
425 5 1.38778e-17 0 0 
426 6 1.38778e-17 0 0 
427 5 0 0 0 
428 6 0 0 0 
429 5 0 0 0 
430 6 0 0 0 
431 1 0 0 0 
432 2 0 0 0 
433 3 0 0 0 
434 4 0 0 0 
435 5 0 0 0 
436 6 0 0 0 
437 5 0 0 0 
438 6 0 0 0 
439 5 0 0 0 
440 6 0 0 0 
441 1 0 0 0 
442 2 0 0 0 
443 3 0 0 0 
444 4 0 0 0 
445 5 0 0 0 
446 6 0 0 0 
447 5 0 0 0 
448 6 0 0 0 
449 5 0 0 0 
450 6 0 0 0 
1001 1 0 0 0 
1002 2 0 0 0 
1003 3 0 0 0 
1004 4 0 0 0 
1005 5 0 0 0 
1006 6 0 0 0 
1007 5 0 0 0 
1008 6 0 0 0 
1009 5 0 0 0 
1010 6 0 0 0 
1011 1 0 0 0 
1012 2 0 0 0 
1013 3 0 -4.44089e-16 0 
1014 4 0 -4.44089e-16 0 
1015 5 0 -4.44089e-16 0 
1016 6 0 -4.44089e-16 0 
1017 5 0 0 0 
1018 6 0 0 0 
1019 5 0 0 0 
1020 6 0 0 0 
1021 1 0 0 0 
1022 2 0 0 0 
1023 3 0 0 0 
1024 4 0 0 0 
1025 5 -8.88178e-16 0 0 
1026 6 -8.88178e-16 0 0 
1027 5 0 0 0 
1028 6 0 0 0 
1029 5 0 0 0 
1030 6 0 0 0 
1031 1 -8.88178e-16 0 0 
1032 2 -8.88178e-16 0 0 
1033 3 -1.77636e-15 0 0 
1034 4 -1.77636e-15 0 0 
1035 5 -8.88178e-16 0 0 
1036 6 -8.88178e-16 0 0 
1037 5 -1.77636e-15 0 0 
1038 6 -1.77636e-15 0 0 
1039 5 -1.77636e-15 0 0 
1040 6 -1.77636e-15 0 0 
1041 1 0 0 0 
1042 2 0 0 0 
1043 3 0 0 0 
1044 4 0 0 0 
1045 5 0 0 0 
1046 6 0 0 0 
1047 5 0 0 0 
1048 6 0 0 0 
1049 5 0 0 0 
1050 6 0 0 0 
1101 1 0 0 0 
1102 2 0 0 0 
1103 3 0 0 0 
1104 4 0 0 0 
1105 5 0 0 0 
1106 6 0 0 0 
1107 5 0 0 0 
1108 6 0 0 0 
1109 5 0 0 0 
1110 6 0 0 0 
1111 1 0 0 0 
1112 2 0 0 0 
1113 3 0 0 0 
1114 4 0 0 0 
1115 5 -8.88178e-16 0 0 
1116 6 -8.88178e-16 0 0 
1117 5 0 0 0 
1118 6 0 0 0 
1119 5 0 0 0 
1120 6 0 0 0 
1121 1 -8.88178e-16 0 0 
1122 2 -8.88178e-16 0 0 
1123 3 -1.77636e-15 0 0 
1124 4 -1.77636e-15 0 0 
1125 5 -8.88178e-16 0 0 
1126 6 -8.88178e-16 0 0 
1127 5 -1.77636e-15 0 0 
1128 6 -1.77636e-15 0 0 
1129 5 -1.77636e-15 0 0 
1130 6 -1.77636e-15 0 0 
1131 1 -8.88178e-16 -8.88178e-16 0 
1132 2 -8.88178e-16 -8.88178e-16 0 
1133 3 0 0 0 
1134 4 0 0 0 
1135 5 -8.88178e-16 0 0 
1136 6 -8.88178e-16 0 0 
1137 5 0 0 0 
1138 6 0 0 0 
1139 5 0 0 0 
1140 6 0 0 0 
1141 1 0 0 0 
1142 2 0 0 0 
1143 3 -1.77636e-15 0 0 
1144 4 -1.77636e-15 0 0 
1145 5 -8.88178e-16 0 0 
1146 6 -8.88178e-16 0 0 
1147 5 -1.77636e-15 -8.88178e-16 0 
1148 6 -1.77636e-15 -8.88178e-16 0 
1149 5 -1.77636e-15 -1.77636e-15 0 
1150 6 -1.77636e-15 -1.77636e-15 0 
1201 1 0 0 0 
1202 2 0 0 0 
1203 3 0 0 0 
1204 4 0 0 0 
1205 5 -8.88178e-16 0 0 
1206 6 -8.88178e-16 0 0 
1207 5 0 0 0 
1208 6 0 0 0 
1209 5 0 0 0 
1210 6 0 0 0 
1211 1 -8.88178e-16 0 0 
1212 2 -8.88178e-16 0 0 
1213 3 -1.77636e-15 0 0 
1214 4 -1.77636e-15 0 0 
1215 5 -8.88178e-16 0 0 
1216 6 -8.88178e-16 0 0 
1217 5 -1.77636e-15 0 0 
1218 6 -1.77636e-15 0 0 
1219 5 -1.77636e-15 0 0 
1220 6 -1.77636e-15 0 0 
1221 1 -8.88178e-16 0 0 
1222 2 -8.88178e-16 0 0 
1223 3 0 0 0 
1224 4 0 0 0 
1225 5 -8.88178e-16 0 0 
1226 6 -8.88178e-16 0 0 
1227 5 0 0 0 
1228 6 0 0 0 
1229 5 0 0 0 
1230 6 0 0 0 
1231 1 -8.88178e-16 0 0 
1232 2 -8.88178e-16 0 0 
1233 3 -1.77636e-15 0 0 
1234 4 -1.77636e-15 0 0 
1235 5 -8.88178e-16 0 0 
1236 6 -8.88178e-16 0 0 
1237 5 -1.77636e-15 0 0 
1238 6 -1.77636e-15 0 0 
1239 5 0 0 0 
1240 6 0 0 0 
1241 1 -8.88178e-16 0 0 
1242 2 -8.88178e-16 0 0 
1243 3 -1.77636e-15 0 0 
1244 4 -1.77636e-15 0 0 
1245 5 0 0 0 
1246 6 0 0 0 
1247 5 -1.77636e-15 0 0 
1248 6 -1.77636e-15 0 0 
1249 5 -1.77636e-15 0 0 
1250 6 -1.77636e-15 0 0 
1301 1 -8.88178e-16 0 0 
1302 2 -8.88178e-16 0 0 
1303 3 -1.77636e-15 0 0 
1304 4 -1.77636e-15 0 0 
1305 5 0 0 0 
1306 6 0 0 0 
1307 5 0 0 0 
1308 6 0 0 0 
1309 5 0 0 0 
1310 6 0 0 0 
1311 1 0 0 0 
1312 2 0 0 0 
1313 3 0 0 0 
1314 4 0 0 0 
1315 5 0 0 0 
1316 6 0 0 0 
1317 5 0 0 0 
1318 6 0 0 0 
1319 5 0 0 0 
1320 6 0 0 0 
1321 1 0 0 0 
1322 2 0 0 0 
1323 3 -1.77636e-15 0 0 
1324 4 -1.77636e-15 0 0 
1325 5 -8.88178e-16 0 0 
1326 6 -8.88178e-16 0 0 
1327 5 0 0 0 
1328 6 0 0 0 
1329 5 0 0 0 
1330 6 0 0 0 
1331 1 -8.88178e-16 0 0 
1332 2 -8.88178e-16 0 0 
1333 3 -1.77636e-15 0 0 
1334 4 -1.77636e-15 0 0 
1335 5 -8.88178e-16 0 0 
1336 6 -8.88178e-16 0 0 
1337 5 -1.77636e-15 0 0 
1338 6 -1.77636e-15 0 0 
1339 5 -1.77636e-15 -1.77636e-15 0 
1340 6 -1.77636e-15 -1.77636e-15 0 
1341 1 0 0 0 
1342 2 0 0 0 
1343 3 -1.77636e-15 0 0 
1344 4 -1.77636e-15 0 0 
1345 5 0 0 0 
1346 6 0 0 0 
1347 5 0 0 0 
1348 6 0 0 0 
1349 5 0 0 0 
1350 6 0 0 0 
1401 1 0 0 0 
1402 2 0 0 0 
1403 3 0 0 0 
1404 4 0 0 0 
1405 5 0 0 0 
1406 6 0 0 0 
1407 5 0 0 0 
1408 6 0 0 0 
1409 5 0 0 0 
1410 6 0 0 0 
1411 1 0 0 0 
1412 2 0 0 0 
1413 3 -1.77636e-15 0 0 
1414 4 -1.77636e-15 0 0 
1415 5 -8.88178e-16 0 0 
1416 6 -8.88178e-16 0 0 
1417 5 0 0 0 
1418 6 0 0 0 
1419 5 0 0 0 
1420 6 0 0 0 
1421 1 -8.88178e-16 0 0 
1422 2 -8.88178e-16 0 0 
1423 3 -1.77636e-15 0 0 
1424 4 -1.77636e-15 0 0 
1425 5 -8.88178e-16 0 0 
1426 6 -8.88178e-16 0 0 
1427 5 -1.77636e-15 0 0 
1428 6 -1.77636e-15 0 0 
1429 5 -1.77636e-15 0 0 
1430 6 -1.77636e-15 0 0 
1431 1 -8.88178e-16 0 0 
1432 2 -8.88178e-16 0 0 
1433 3 -1.77636e-15 0 0 
1434 4 -1.77636e-15 0 0 
1435 5 -8.88178e-16 0 0 
1436 6 -8.88178e-16 0 0 
1437 5 0 0 0 
1438 6 0 0 0 
1439 5 0 0 0 
1440 6 0 0 0 
1441 1 0 0 0 
1442 2 0 0 0 
1443 3 -1.77636e-15 0 0 
1444 4 -1.77636e-15 0 0 
1445 5 -8.88178e-16 0 0 
1446 6 -8.88178e-16 0 0 
1447 5 -1.77636e-15 0 0 
1448 6 -1.77636e-15 0 0 
1449 5 -1.77636e-15 0 0 
1450 6 -1.77636e-15 0 0 
2001 1 0 0 0 
2002 2 0 0 0 
2003 3 0 0 0 
2004 4 0 0 0 
2005 5 1.77636e-15 0 0 
2006 6 1.77636e-15 0 0 
2007 5 0 0 0 
2008 6 0 0 0 
2009 5 0 0 0 
2010 6 0 0 0 
2011 1 0 0 0 
2012 2 0 0 0 
2013 3 0 -4.44089e-16 0 
2014 4 0 -4.44089e-16 0 
2015 5 0 -4.44089e-16 0 
2016 6 0 -4.44089e-16 0 
2017 5 0 0 0 
2018 6 0 0 0 
2019 5 0 0 0 
2020 6 0 0 0 
2021 1 0 0 0 
2022 2 0 0 0 
2023 3 0 0 0 
2024 4 0 0 0 
2025 5 1.77636e-15 0 0 
2026 6 1.77636e-15 0 0 
2027 5 0 0 0 
2028 6 0 0 0 
2029 5 0 0 0 
2030 6 0 0 0 
2031 1 0 0 0 
2032 2 0 0 0 
2033 3 0 0 0 
2034 4 0 0 0 
2035 5 0 0 0 
2036 6 0 0 0 
2037 5 0 0 0 
2038 6 0 0 0 
2039 5 0 0 0 
2040 6 0 0 0 
2041 1 0 0 0 
2042 2 0 0 0 
2043 3 0 0 0 
2044 4 0 0 0 
2045 5 0 0 0 
2046 6 0 0 0 
2047 5 0 0 0 
2048 6 0 0 0 
2049 5 0 0 0 
2050 6 0 0 0 
2101 1 0 0 0 
2102 2 0 0 0 
2103 3 0 0 0 
2104 4 0 0 0 
2105 5 0 0 0 
2106 6 0 0 0 
2107 5 0 0 0 
2108 6 0 0 0 
2109 5 0 0 0 
2110 6 0 0 0 
2111 1 0 0 0 
2112 2 0 0 0 
2113 3 0 0 0 
2114 4 0 0 0 
2115 5 1.77636e-15 0 0 
2116 6 1.77636e-15 0 0 
2117 5 0 0 0 
2118 6 0 0 0 
2119 5 0 0 0 
2120 6 0 0 0 
2121 1 0 0 0 
2122 2 0 0 0 
2123 3 0 0 0 
2124 4 0 0 0 
2125 5 0 0 0 
2126 6 0 0 0 
2127 5 0 0 0 
2128 6 0 0 0 
2129 5 0 0 0 
2130 6 0 0 0 
2131 1 0 -8.88178e-16 0 
2132 2 0 -8.88178e-16 0 
2133 3 0 0 0 
2134 4 0 0 0 
2135 5 0 0 0 
2136 6 0 0 0 
2137 5 0 0 0 
2138 6 0 0 0 
2139 5 0 0 0 
2140 6 0 0 0 
2141 1 0 0 0 
2142 2 0 0 0 
2143 3 0 0 0 
2144 4 0 0 0 
2145 5 0 0 0 
2146 6 0 0 0 
2147 5 0 -8.88178e-16 0 
2148 6 0 -8.88178e-16 0 
2149 5 0 -1.77636e-15 0 
2150 6 0 -1.77636e-15 0 
2201 1 0 0 0 
2202 2 0 0 0 
2203 3 0 0 0 
2204 4 0 0 0 
2205 5 1.77636e-15 0 0 
2206 6 1.77636e-15 0 0 
2207 5 0 0 0 
2208 6 0 0 0 
2209 5 0 0 0 
2210 6 0 0 0 
2211 1 0 0 0 
2212 2 0 0 0 
2213 3 0 0 0 
2214 4 0 0 0 
2215 5 0 0 0 
2216 6 0 0 0 
2217 5 0 0 0 
2218 6 0 0 0 
2219 5 0 0 0 
2220 6 0 0 0 
2221 1 0 0 0 
2222 2 0 0 0 
2223 3 0 0 0 
2224 4 0 0 0 
2225 5 0 0 0 
2226 6 0 0 0 
2227 5 0 0 0 
2228 6 0 0 0 
2229 5 1.77636e-15 0 0 
2230 6 1.77636e-15 0 0 
2231 1 0 0 0 
2232 2 0 0 0 
2233 3 0 0 0 
2234 4 0 0 0 
2235 5 0 0 0 
2236 6 0 0 0 
2237 5 0 0 0 
2238 6 0 0 0 
2239 5 0 0 0 
2240 6 0 0 0 
2241 1 -1.77636e-15 0 0 
2242 2 -1.77636e-15 0 0 
2243 3 0 0 0 
2244 4 0 0 0 
2245 5 0 0 0 
2246 6 0 0 0 
2247 5 -1.77636e-15 0 0 
2248 6 -1.77636e-15 0 0 
2249 5 0 0 0 
2250 6 0 0 0 
2301 1 0 0 0 
2302 2 0 0 0 
2303 3 0 0 0 
2304 4 0 0 0 
2305 5 0 0 0 
2306 6 0 0 0 
2307 5 0 0 0 
2308 6 0 0 0 
2309 5 0 0 0 
2310 6 0 0 0 
2311 1 0 0 0 
2312 2 0 0 0 
2313 3 0 0 0 
2314 4 0 0 0 
2315 5 0 0 0 
2316 6 0 0 0 
2317 5 0 0 0 
2318 6 0 0 0 
2319 5 0 0 0 
2320 6 0 0 0 
2321 1 0 0 0 
2322 2 0 0 0 
2323 3 0 0 0 
2324 4 0 0 0 
2325 5 0 0 0 
2326 6 0 0 0 
2327 5 0 0 0 
2328 6 0 0 0 
2329 5 0 0 0 
2330 6 0 0 0 
2331 1 -1.77636e-15 0 0 
2332 2 -1.77636e-15 0 0 
2333 3 0 0 0 
2334 4 0 0 0 
2335 5 0 0 0 
2336 6 0 0 0 
2337 5 0 0 0 
2338 6 0 0 0 
2339 5 0 -1.77636e-15 0 
2340 6 0 -1.77636e-15 0 
2341 1 0 0 0 
2342 2 0 0 0 
2343 3 0 0 0 
2344 4 0 0 0 
2345 5 0 0 0 
2346 6 0 0 0 
2347 5 -1.77636e-15 0 0 
2348 6 -1.77636e-15 0 0 
2349 5 0 0 0 
2350 6 0 0 0 
2401 1 0 0 0 
2402 2 0 0 0 
2403 3 0 0 0 
2404 4 0 0 0 
2405 5 0 0 0 
2406 6 0 0 0 
2407 5 0 0 0 
2408 6 0 0 0 
2409 5 0 0 0 
2410 6 0 0 0 
2411 1 0 0 0 
2412 2 0 0 0 
2413 3 0 0 0 
2414 4 0 0 0 
2415 5 0 0 0 
2416 6 0 0 0 
2417 5 0 0 0 
2418 6 0 0 0 
2419 5 0 0 0 
2420 6 0 0 0 
2421 1 -1.77636e-15 0 0 
2422 2 -1.77636e-15 0 0 
2423 3 0 0 0 
2424 4 0 0 0 
2425 5 0 0 0 
2426 6 0 0 0 
2427 5 0 0 0 
2428 6 0 0 0 
2429 5 0 0 0 
2430 6 0 0 0 
2431 1 0 0 0 
2432 2 0 0 0 
2433 3 0 0 0 
2434 4 0 0 0 
2435 5 0 0 0 
2436 6 0 0 0 
2437 5 -1.77636e-15 0 0 
2438 6 -1.77636e-15 0 0 
2439 5 0 0 0 
2440 6 0 0 0 
2441 1 -1.77636e-15 0 0 
2442 2 -1.77636e-15 0 0 
2443 3 0 0 0 
2444 4 0 0 0 
2445 5 0 0 0 
2446 6 0 0 0 
2447 5 0 0 0 
2448 6 0 0 0 
2449 5 0 0 0 
2450 6 0 0 0 
3001 1 0 0 0 
3002 2 0 0 0 
3003 3 0 0 0 
3004 4 0 0 0 
3005 5 0 0 0 
3006 6 0 0 0 
3007 5 0 0 0 
3008 6 0 0 0 
3009 5 0 0 0 
3010 6 0 0 0 
3011 1 0 0 0 
3012 2 0 0 0 
3013 3 1.77636e-15 -4.44089e-16 0 
3014 4 1.77636e-15 -4.44089e-16 0 
3015 5 1.77636e-15 -4.44089e-16 0 
3016 6 1.77636e-15 -4.44089e-16 0 
3017 5 1.77636e-15 0 0 
3018 6 1.77636e-15 0 0 
3019 5 0 0 0 
3020 6 0 0 0 
3021 1 0 0 0 
3022 2 0 0 0 
3023 3 1.77636e-15 0 0 
3024 4 1.77636e-15 0 0 
3025 5 1.77636e-15 0 0 
3026 6 1.77636e-15 0 0 
3027 5 0 0 0 
3028 6 0 0 0 
3029 5 0 0 0 
3030 6 0 0 0 
3031 1 0 0 0 
3032 2 0 0 0 
3033 3 1.77636e-15 0 0 
3034 4 1.77636e-15 0 0 
3035 5 1.77636e-15 0 0 
3036 6 1.77636e-15 0 0 
3037 5 0 0 0 
3038 6 0 0 0 
3039 5 0 0 0 
3040 6 0 0 0 
3041 1 0 0 0 
3042 2 0 0 0 
3043 3 0 0 0 
3044 4 0 0 0 
3045 5 0 0 0 
3046 6 0 0 0 
3047 5 0 0 0 
3048 6 0 0 0 
3049 5 0 0 0 
3050 6 0 0 0 
3101 1 0 0 0 
3102 2 0 0 0 
3103 3 1.77636e-15 0 0 
3104 4 1.77636e-15 0 0 
3105 5 1.77636e-15 0 0 
3106 6 1.77636e-15 0 0 
3107 5 1.77636e-15 0 0 
3108 6 1.77636e-15 0 0 
3109 5 0 0 0 
3110 6 0 0 0 
3111 1 0 0 0 
3112 2 0 0 0 
3113 3 1.77636e-15 0 0 
3114 4 1.77636e-15 0 0 
3115 5 1.77636e-15 0 0 
3116 6 1.77636e-15 0 0 
3117 5 0 0 0 
3118 6 0 0 0 
3119 5 0 0 0 
3120 6 0 0 0 
3121 1 0 0 0 
3122 2 0 0 0 
3123 3 1.77636e-15 0 0 
3124 4 1.77636e-15 0 0 
3125 5 1.77636e-15 0 0 
3126 6 1.77636e-15 0 0 
3127 5 0 0 0 
3128 6 0 0 0 
3129 5 0 0 0 
3130 6 0 0 0 
3131 1 0 -8.88178e-16 0 
3132 2 0 -8.88178e-16 0 
3133 3 0 0 0 
3134 4 0 0 0 
3135 5 0 0 0 
3136 6 0 0 0 
3137 5 0 0 0 
3138 6 0 0 0 
3139 5 0 0 0 
3140 6 0 0 0 
3141 1 0 0 0 
3142 2 0 0 0 
3143 3 0 0 0 
3144 4 0 0 0 
3145 5 0 0 0 
3146 6 0 0 0 
3147 5 0 -8.88178e-16 0 
3148 6 0 -8.88178e-16 0 
3149 5 0 -1.77636e-15 0 
3150 6 0 -1.77636e-15 0 
3201 1 0 0 0 
3202 2 0 0 0 
3203 3 1.77636e-15 0 0 
3204 4 1.77636e-15 0 0 
3205 5 1.77636e-15 0 0 
3206 6 1.77636e-15 0 0 
3207 5 0 0 0 
3208 6 0 0 0 
3209 5 0 0 0 
3210 6 0 0 0 
3211 1 0 0 0 
3212 2 0 0 0 
3213 3 1.77636e-15 0 0 
3214 4 1.77636e-15 0 0 
3215 5 1.77636e-15 0 0 
3216 6 1.77636e-15 0 0 
3217 5 0 0 0 
3218 6 0 0 0 
3219 5 0 0 0 
3220 6 0 0 0 
3221 1 0 0 0 
3222 2 0 0 0 
3223 3 0 0 0 
3224 4 0 0 0 
3225 5 0 0 0 
3226 6 0 0 0 
3227 5 0 0 0 
3228 6 0 0 0 
3229 5 0 0 0 
3230 6 0 0 0 
3231 1 0 0 0 
3232 2 0 0 0 
3233 3 0 0 0 
3234 4 0 0 0 
3235 5 0 0 0 
3236 6 0 0 0 
3237 5 0 0 0 
3238 6 0 0 0 
3239 5 0 0 0 
3240 6 0 0 0 
3241 1 0 0 0 
3242 2 0 0 0 
3243 3 0 0 0 
3244 4 0 0 0 
3245 5 0 0 0 
3246 6 0 0 0 
3247 5 0 0 0 
3248 6 0 0 0 
3249 5 0 0 0 
3250 6 0 0 0 
3301 1 0 0 0 
3302 2 0 0 0 
3303 3 1.77636e-15 0 0 
3304 4 1.77636e-15 0 0 
3305 5 1.77636e-15 0 0 
3306 6 1.77636e-15 0 0 
3307 5 0 0 0 
3308 6 0 0 0 
3309 5 0 0 0 
3310 6 0 0 0 
3311 1 0 0 0 
3312 2 0 0 0 
3313 3 0 0 0 
3314 4 0 0 0 
3315 5 0 0 0 
3316 6 0 0 0 
3317 5 0 0 0 
3318 6 0 0 0 
3319 5 0 0 0 
3320 6 0 0 0 
3321 1 0 0 0 
3322 2 0 0 0 
3323 3 0 0 0 
3324 4 0 0 0 
3325 5 0 0 0 
3326 6 0 0 0 
3327 5 0 0 0 
3328 6 0 0 0 
3329 5 0 0 0 
3330 6 0 0 0 
3331 1 0 0 0 
3332 2 0 0 0 
3333 3 0 0 0 
3334 4 0 0 0 
3335 5 0 0 0 
3336 6 0 0 0 
3337 5 0 0 0 
3338 6 0 0 0 
3339 5 0 -1.77636e-15 0 
3340 6 0 -1.77636e-15 0 
3341 1 -3.55271e-15 0 0 
3342 2 -3.55271e-15 0 0 
3343 3 1.77636e-15 0 0 
3344 4 1.77636e-15 0 0 
3345 5 1.77636e-15 0 0 
3346 6 1.77636e-15 0 0 
3347 5 0 0 0 
3348 6 0 0 0 
3349 5 0 0 0 
3350 6 0 0 0 
3401 1 0 0 0 
3402 2 0 0 0 
3403 3 0 0 0 
3404 4 0 0 0 
3405 5 0 0 0 
3406 6 0 0 0 
3407 5 0 0 0 
3408 6 0 0 0 
3409 5 0 0 0 
3410 6 0 0 0 
3411 1 0 0 0 
3412 2 0 0 0 
3413 3 0 0 0 
3414 4 0 0 0 
3415 5 0 0 0 
3416 6 0 0 0 
3417 5 0 0 0 
3418 6 0 0 0 
3419 5 0 0 0 
3420 6 0 0 0 
3421 1 0 0 0 
3422 2 0 0 0 
3423 3 0 0 0 
3424 4 0 0 0 
3425 5 0 0 0 
3426 6 0 0 0 
3427 5 0 0 0 
3428 6 0 0 0 
3429 5 0 0 0 
3430 6 0 0 0 
3431 1 -3.55271e-15 0 0 
3432 2 -3.55271e-15 0 0 
3433 3 1.77636e-15 0 0 
3434 4 1.77636e-15 0 0 
3435 5 1.77636e-15 0 0 
3436 6 1.77636e-15 0 0 
3437 5 0 0 0 
3438 6 0 0 0 
3439 5 0 0 0 
3440 6 0 0 0 
3441 1 -3.55271e-15 0 0 
3442 2 -3.55271e-15 0 0 
3443 3 0 0 0 
3444 4 0 0 0 
3445 5 0 0 0 
3446 6 0 0 0 
3447 5 0 0 0 
3448 6 0 0 0 
3449 5 0 0 0 
3450 6 0 0 0 
4001 1 0 0 0 
4002 2 0 0 0 
4003 3 0 0 0 
4004 4 0 0 0 
4005 5 0 0 0 
4006 6 0 0 0 
4007 5 0 0 0 
4008 6 0 0 0 
4009 5 0 0 0 
4010 6 0 0 0 
4011 1 0 0 0 
4012 2 0 0 0 
4013 3 0 -4.44089e-16 0 
4014 4 0 -4.44089e-16 0 
4015 5 0 -4.44089e-16 0 
4016 6 0 -4.44089e-16 0 
4017 5 0 0 0 
4018 6 0 0 0 
4019 5 0 0 0 
4020 6 0 0 0 
4021 1 0 0 0 
4022 2 0 0 0 
4023 3 0 0 0 
4024 4 0 0 0 
4025 5 0 0 0 
4026 6 0 0 0 
4027 5 0 0 0 
4028 6 0 0 0 
4029 5 0 0 0 
4030 6 0 0 0 
4031 1 0 0 0 
4032 2 0 0 0 
4033 3 0 0 0 
4034 4 0 0 0 
4035 5 0 0 0 
4036 6 0 0 0 
4037 5 0 0 0 
4038 6 0 0 0 
4039 5 0 0 0 
4040 6 0 0 0 
4041 1 0 0 0 
4042 2 0 0 0 
4043 3 0 0 0 
4044 4 0 0 0 
4045 5 0 0 0 
4046 6 0 0 0 
4047 5 0 0 0 
4048 6 0 0 0 
4049 5 0 0 0 
4050 6 0 0 0 
4101 1 0 0 0 
4102 2 0 0 0 
4103 3 0 0 0 
4104 4 0 0 0 
4105 5 0 0 0 
4106 6 0 0 0 
4107 5 3.55271e-15 0 0 
4108 6 3.55271e-15 0 0 
4109 5 0 0 0 
4110 6 0 0 0 
4111 1 3.55271e-15 0 0 
4112 2 3.55271e-15 0 0 
4113 3 0 0 0 
4114 4 0 0 0 
4115 5 0 0 0 
4116 6 0 0 0 
4117 5 0 0 0 
4118 6 0 0 0 
4119 5 0 0 0 
4120 6 0 0 0 
4121 1 0 0 0 
4122 2 0 0 0 
4123 3 0 0 0 
4124 4 0 0 0 
4125 5 0 0 0 
4126 6 0 0 0 
4127 5 0 0 0 
4128 6 0 0 0 
4129 5 0 0 0 
4130 6 0 0 0 
4131 1 0 -8.88178e-16 0 
4132 2 0 -8.88178e-16 0 
4133 3 -3.55271e-15 0 0 
4134 4 -3.55271e-15 0 0 
4135 5 -3.55271e-15 0 0 
4136 6 -3.55271e-15 0 0 
4137 5 0 0 0 
4138 6 0 0 0 
4139 5 0 0 0 
4140 6 0 0 0 
4141 1 0 0 0 
4142 2 0 0 0 
4143 3 0 0 0 
4144 4 0 0 0 
4145 5 0 0 0 
4146 6 0 0 0 
4147 5 0 -8.88178e-16 0 
4148 6 0 -8.88178e-16 0 
4149 5 -3.55271e-15 -1.77636e-15 0 
4150 6 -3.55271e-15 -1.77636e-15 0 
4201 1 0 0 0 
4202 2 0 0 0 
4203 3 0 0 0 
4204 4 0 0 0 
4205 5 0 0 0 
4206 6 0 0 0 
4207 5 0 0 0 
4208 6 0 0 0 
4209 5 0 0 0 
4210 6 0 0 0 
4211 1 0 0 0 
4212 2 0 0 0 
4213 3 0 0 0 
4214 4 0 0 0 
4215 5 0 0 0 
4216 6 0 0 0 
4217 5 0 0 0 
4218 6 0 0 0 
4219 5 0 0 0 
4220 6 0 0 0 
4221 1 0 0 0 
4222 2 0 0 0 
4223 3 0 0 0 
4224 4 0 0 0 
4225 5 0 0 0 
4226 6 0 0 0 
4227 5 0 0 0 
4228 6 0 0 0 
4229 5 0 0 0 
4230 6 0 0 0 
4231 1 0 0 0 
4232 2 0 0 0 
4233 3 0 0 0 
4234 4 0 0 0 
4235 5 0 0 0 
4236 6 0 0 0 
4237 5 0 0 0 
4238 6 0 0 0 
4239 5 0 0 0 
4240 6 0 0 0 
4241 1 0 0 0 
4242 2 0 0 0 
4243 3 0 0 0 
4244 4 0 0 0 
4245 5 0 0 0 
4246 6 0 0 0 
4247 5 0 0 0 
4248 6 0 0 0 
4249 5 0 0 0 
4250 6 0 0 0 
4301 1 0 0 0 
4302 2 0 0 0 
4303 3 0 0 0 
4304 4 0 0 0 
4305 5 0 0 0 
4306 6 0 0 0 
4307 5 0 0 0 
4308 6 0 0 0 
4309 5 0 0 0 
4310 6 0 0 0 
4311 1 0 0 0 
4312 2 0 0 0 
4313 3 -3.55271e-15 0 0 
4314 4 -3.55271e-15 0 0 
4315 5 -3.55271e-15 0 0 
4316 6 -3.55271e-15 0 0 
4317 5 0 0 0 
4318 6 0 0 0 
4319 5 0 0 0 
4320 6 0 0 0 
4321 1 0 0 0 
4322 2 0 0 0 
4323 3 0 0 0 
4324 4 0 0 0 
4325 5 0 0 0 
4326 6 0 0 0 
4327 5 0 0 0 
4328 6 0 0 0 
4329 5 -3.55271e-15 0 0 
4330 6 -3.55271e-15 0 0 
4331 1 3.55271e-15 0 0 
4332 2 3.55271e-15 0 0 
4333 3 0 0 0 
4334 4 0 0 0 
4335 5 0 0 0 
4336 6 0 0 0 
4337 5 0 0 0 
4338 6 0 0 0 
4339 5 0 -1.77636e-15 0 
4340 6 0 -1.77636e-15 0 
4341 1 0 0 0 
4342 2 0 0 0 
4343 3 0 0 0 
4344 4 0 0 0 
4345 5 0 0 0 
4346 6 0 0 0 
4347 5 0 0 0 
4348 6 0 0 0 
4349 5 0 0 0 
4350 6 0 0 0 
4401 1 0 0 0 
4402 2 0 0 0 
4403 3 0 0 0 
4404 4 0 0 0 
4405 5 0 0 0 
4406 6 0 0 0 
4407 5 0 0 0 
4408 6 0 0 0 
4409 5 0 0 0 
4410 6 0 0 0 
4411 1 0 0 0 
4412 2 0 0 0 
4413 3 0 0 0 
4414 4 0 0 0 
4415 5 0 0 0 
4416 6 0 0 0 
4417 5 0 0 0 
4418 6 0 0 0 
4419 5 0 0 0 
4420 6 0 0 0 
4421 1 0 0 0 
4422 2 0 0 0 
4423 3 0 0 0 
4424 4 0 0 0 
4425 5 0 0 0 
4426 6 0 0 0 
4427 5 0 0 0 
4428 6 0 0 0 
4429 5 0 0 0 
4430 6 0 0 0 
4431 1 0 0 0 
4432 2 0 0 0 
4433 3 0 0 0 
4434 4 0 0 0 
4435 5 0 0 0 
4436 6 0 0 0 
4437 5 0 0 0 
4438 6 0 0 0 
4439 5 0 0 0 
4440 6 0 0 0 
4441 1 0 0 0 
4442 2 0 0 0 
4443 3 0 0 0 
4444 4 0 0 0 
4445 5 0 0 0 
4446 6 0 0 0 
4447 5 0 0 0 
4448 6 0 0 0 
4449 5 0 0 0 
4450 6 0 0 0 
51 1 0 0 0 
52 2 0 0 0 
59 5 -4.44089e-16 0 0 
60 6 -4.44089e-16 0 0 
151 1 0 0 0 
152 2 0 0 0 
159 5 0 0 0 
160 6 0 0 0 
251 1 0 0 0 
252 2 0 0 0 
259 5 0 0 0 
260 6 0 0 0 
351 1 0 0 0 
352 2 0 0 0 
359 5 0 0 0 
360 6 0 0 0 
451 1 0 0 0 
452 2 0 0 0 
459 5 0 0 0 
460 6 0 0 0 
1051 1 0 0 0 
1052 2 0 0 0 
1059 5 0 0 0 
1060 6 0 0 0 
1151 1 0 0 0 
1152 2 0 0 0 
1159 5 0 0 0 
1160 6 0 0 0 
1251 1 0 0 0 
1252 2 0 0 0 
1259 5 0 0 0 
1260 6 0 0 0 
1351 1 0 0 0 
1352 2 0 0 0 
1359 5 0 0 0 
1360 6 0 0 0 
1451 1 0 0 0 
1452 2 0 0 0 
1459 5 0 0 0 
1460 6 0 0 0 
2051 1 0 0 0 
4460 6 0 0 0 
4459 5 0 0 0 
2052 2 0 0 0 
2059 5 0 0 0 
2060 6 0 0 0 
2151 1 -1.77636e-15 0 0 
2152 2 -1.77636e-15 0 0 
2159 5 0 0 0 
4452 2 0 0 0 
4451 1 0 0 0 
2160 6 0 0 0 
2251 1 0 0 0 
2252 2 0 0 0 
2259 5 0 0 0 
2260 6 0 0 0 
2351 1 -1.77636e-15 0 0 
2352 2 -1.77636e-15 0 0 
2359 5 0 0 0 
2360 6 0 0 0 
2451 1 -1.77636e-15 0 0 
2452 2 -1.77636e-15 0 0 
2459 5 -1.77636e-15 0 0 
2460 6 -1.77636e-15 0 0 
3051 1 0 0 0 
3052 2 0 0 0 
3059 5 0 0 0 
3060 6 0 0 0 
3151 1 0 0 0 
3152 2 0 0 0 
3159 5 0 0 0 
3160 6 0 0 0 
3251 1 -3.55271e-15 0 0 
3252 2 -3.55271e-15 0 0 
3259 5 0 0 0 
3260 6 0 0 0 
3351 1 -3.55271e-15 0 0 
3352 2 -3.55271e-15 0 0 
3359 5 0 0 0 
3360 6 0 0 0 
3451 1 0 0 0 
3452 2 0 0 0 
3459 5 -1.77636e-15 0 0 
3460 6 -1.77636e-15 0 0 
4051 1 0 0 0 
4052 2 0 0 0 
4059 5 0 0 0 
4060 6 0 0 0 
4151 1 3.55271e-15 0 0 
4152 2 3.55271e-15 0 0 
4159 5 0 0 0 
4360 6 0 0 0 
4359 5 0 0 0 
4160 6 0 0 0 
4251 1 0 0 0 
4252 2 0 0 0 
4259 5 0 0 0 
4260 6 0 0 0 
4351 1 0 0 0 
4352 2 0 0 0 
501 1 0 0 0 
502 2 0 0 0 
507 5 0 0 0 
508 6 0 0 0 
511 1 0 0 0 
512 2 0 0 0 
517 5 0 0 0 
518 6 0 0 0 
521 1 0 0 0 
522 2 0 0 0 
527 5 0 0 0 
528 6 0 0 0 
531 1 1.38778e-17 0 0 
532 2 1.38778e-17 0 0 
537 5 0 0 0 
538 6 0 0 0 
541 1 1.38778e-17 0 0 
542 2 1.38778e-17 0 0 
547 5 0 0 0 
548 6 0 0 0 
1501 1 0 0 0 
1502 2 0 0 0 
1507 5 0 0 0 
1508 6 0 0 0 
1511 1 0 0 0 
1512 2 0 0 0 
1517 5 0 0 0 
1518 6 0 0 0 
1521 1 0 0 0 
1522 2 0 0 0 
1527 5 0 0 0 
1528 6 0 0 0 
1531 1 0 0 0 
1532 2 0 0 0 
1537 5 0 0 0 
1538 6 0 0 0 
1541 1 -8.88178e-16 0 0 
1542 2 -8.88178e-16 0 0 
1547 5 0 0 0 
1548 6 0 0 0 
2501 1 0 0 0 
2502 2 0 0 0 
2507 5 0 0 0 
2508 6 0 0 0 
2511 1 -1.77636e-15 0 0 
2512 2 -1.77636e-15 0 0 
2517 5 0 0 0 
2518 6 0 0 0 
2521 1 0 0 0 
2522 2 0 0 0 
2527 5 -1.77636e-15 0 0 
2528 6 -1.77636e-15 0 0 
2531 1 -1.77636e-15 0 0 
2532 2 -1.77636e-15 0 0 
2537 5 0 0 0 
2538 6 0 0 0 
2541 1 -1.77636e-15 0 0 
2542 2 -1.77636e-15 0 0 
2547 5 0 0 0 
2548 6 0 0 0 
3501 1 0 0 0 
3502 2 0 0 0 
3507 5 0 0 0 
3508 6 0 0 0 
3511 1 0 0 0 
3512 2 0 0 0 
3517 5 0 0 0 
3518 6 0 0 0 
3521 1 -3.55271e-15 0 0 
3522 2 -3.55271e-15 0 0 
3527 5 0 0 0 
3528 6 0 0 0 
3531 1 -3.55271e-15 0 0 
3532 2 -3.55271e-15 0 0 
3537 5 0 0 0 
3538 6 0 0 0 
3541 1 0 0 0 
3542 2 0 0 0 
3547 5 0 0 0 
3548 6 0 0 0 
4501 1 0 0 0 
4502 2 0 0 0 
4507 5 0 0 0 
4508 6 0 0 0 
4511 1 3.55271e-15 0 0 
4512 2 3.55271e-15 0 0 
4517 5 0 0 0 
4518 6 0 0 0 
4521 1 0 0 0 
4522 2 0 0 0 
4527 5 0 0 0 
4528 6 0 0 0 
4531 1 0 0 0 
4532 2 0 0 0 
4537 5 0 0 0 
4538 6 0 0 0 
4541 1 0 0 0 
4542 2 0 0 0 
4547 5 0 0 0 
4548 6 0 0 0 
551 1 2.77556e-17 0 0 
552 2 2.77556e-17 0 0 
1551 1 8.88178e-16 0 0 
1552 2 8.88178e-16 0 0 
2551 1 -1.77636e-15 0 0 
2552 2 -1.77636e-15 0 0 
3551 1 0 0 0 
3552 2 0 0 0 
4551 1 0 0 0 
4552 2 0 0 0 
5001 1 0 0 0 
5002 2 0 0 0 
5011 1 0 0 0 
5012 2 0 0 0 
5015 5 0 -4.44089e-16 0 
5016 6 0 -4.44089e-16 0 
5021 1 0 0 0 
5022 2 0 0 0 
5025 5 0 0 0 
5026 6 0 0 0 
5031 1 0 0 0 
5032 2 0 0 0 
5035 5 0 0 0 
5036 6 0 0 0 
5041 1 0 0 0 
5042 2 0 0 0 
5045 5 0 0 0 
5046 6 0 0 0 
5101 1 0 0 0 
5102 2 0 0 0 
5105 5 0 0 0 
5106 6 0 0 0 
5111 1 0 0 0 
5112 2 0 0 0 
5115 5 0 0 0 
5116 6 0 0 0 
5121 1 0 0 0 
5122 2 0 0 0 
5125 5 0 0 0 
5126 6 0 0 0 
5131 1 0 -8.88178e-16 0 
5132 2 0 -8.88178e-16 0 
5135 5 0 0 0 
5136 6 0 0 0 
5141 1 0 0 0 
5142 2 0 0 0 
5145 5 0 0 0 
5146 6 0 0 0 
5201 1 0 0 0 
5202 2 0 0 0 
5205 5 0 0 0 
5206 6 0 0 0 
5211 1 0 0 0 
5212 2 0 0 0 
5215 5 0 0 0 
5216 6 0 0 0 
5221 1 0 0 0 
5222 2 0 0 0 
5225 5 0 0 0 
5226 6 0 0 0 
5231 1 0 0 0 
5232 2 0 0 0 
5235 5 0 0 0 
5236 6 0 0 0 
5241 1 -3.55271e-15 0 0 
5242 2 -3.55271e-15 0 0 
5245 5 0 0 0 
5246 6 0 0 0 
5301 1 0 0 0 
5302 2 0 0 0 
5305 5 0 0 0 
5306 6 0 0 0 
5311 1 0 0 0 
5312 2 0 0 0 
5315 5 0 0 0 
5316 6 0 0 0 
5321 1 0 0 0 
5322 2 0 0 0 
5325 5 0 0 0 
5326 6 0 0 0 
5331 1 0 0 0 
5332 2 0 0 0 
5335 5 -3.55271e-15 0 0 
5336 6 -3.55271e-15 0 0 
5341 1 0 0 0 
5342 2 0 0 0 
5345 5 0 0 0 
5346 6 0 0 0 
5401 1 0 0 0 
5402 2 0 0 0 
5405 5 0 0 0 
5406 6 0 0 0 
5411 1 0 0 0 
5412 2 0 0 0 
5415 5 0 0 0 
5416 6 0 0 0 
5421 1 -3.55271e-15 0 0 
5422 2 -3.55271e-15 0 0 
5425 5 0 0 0 
5426 6 0 0 0 
5431 1 0 0 0 
5432 2 0 0 0 
5435 5 0 0 0 
5436 6 0 0 0 
5441 1 0 0 0 
5442 2 0 0 0 
5051 1 0 0 0 
5052 2 0 0 0 
5151 1 0 0 0 
5152 2 0 0 0 
5251 1 0 0 0 
5252 2 0 0 0 
5351 1 0 0 0 
5352 2 0 0 0 
5451 1 0 0 0 
5452 2 0 0 0 
5501 1 0 0 0 
5502 2 0 0 0 
5511 1 0 0 0 
5512 2 0 0 0 
5521 1 0 0 0 
5522 2 0 0 0 
5531 1 0 0 0 
5532 2 0 0 0 
5552 2 0 0 0 
5551 1 0 0 0 
4500 6 0 0 0 
4499 5 0 0 0 
53 3 -4.44089e-16 0 0 
54 4 -4.44089e-16 0 0 
55 5 0 0 0 
56 6 0 0 0 
57 5 -4.44089e-16 0 0 
58 6 -4.44089e-16 0 0 
4498 6 0 0 0 
4497 5 0 0 0 
61 1 0 0 0 
62 2 0 0 0 
63 3 0 0 0 
64 4 0 0 0 
65 5 0 0 0 
66 6 0 0 0 
67 5 0 0 0 
68 6 0 0 0 
69 5 0 0 0 
70 6 0 0 0 
71 1 0 0 0 
72 2 0 0 0 
73 3 0 0 0 
74 4 0 0 0 
75 5 1.38778e-17 0 0 
76 6 1.38778e-17 0 0 
77 5 0 0 0 
78 6 0 0 0 
79 5 0 -4.44089e-16 0 
80 6 0 -4.44089e-16 0 
81 1 0 0 0 
82 2 0 0 0 
83 3 0 0 0 
84 4 0 0 0 
85 5 0 0 0 
86 6 0 0 0 
87 5 0 1.38778e-17 0 
88 6 0 1.38778e-17 0 
89 5 0 0 0 
90 6 0 0 0 
91 1 0 0 0 
92 2 0 0 0 
93 3 0 0 0 
94 4 0 0 0 
95 5 0 0 0 
96 6 0 0 0 
97 5 0 0 0 
98 6 0 0 0 
99 5 0 0 0 
100 6 0 0 0 
4496 6 -3.55271e-15 0 0 
4495 5 -3.55271e-15 0 0 
153 3 -4.44089e-16 0 0 
154 4 -4.44089e-16 0 0 
155 5 0 0 0 
156 6 0 0 0 
157 5 0 0 0 
158 6 0 0 0 
4494 4 0 0 0 
4493 3 0 0 0 
161 1 0 0 0 
162 2 0 0 0 
163 3 0 0 0 
164 4 0 0 0 
165 5 0 0 0 
166 6 0 0 0 
167 5 0 0 0 
168 6 0 0 0 
169 5 0 0 0 
170 6 0 0 0 
171 1 0 0 0 
172 2 0 0 0 
173 3 0 0 0 
174 4 0 0 0 
175 5 0 0 0 
176 6 0 0 0 
177 5 0 0 0 
178 6 0 0 0 
179 5 -4.44089e-16 0 0 
180 6 -4.44089e-16 0 0 
181 1 0 0 0 
182 2 0 0 0 
183 3 0 0 0 
184 4 0 0 0 
185 5 0 0 0 
186 6 0 0 0 
187 5 0 0 0 
188 6 0 0 0 
189 5 0 0 0 
190 6 0 0 0 
191 1 2.77556e-17 0 0 
192 2 2.77556e-17 0 0 
193 3 0 0 0 
194 4 0 0 0 
195 5 0 0 0 
196 6 0 0 0 
197 5 0 0 0 
198 6 0 0 0 
199 5 0 0 0 
200 6 0 0 0 
4492 2 0 0 0 
4491 1 0 0 0 
253 3 0 0 0 
254 4 0 0 0 
255 5 0 0 0 
256 6 0 0 0 
257 5 -4.44089e-16 0 0 
258 6 -4.44089e-16 0 0 
4490 6 0 0 0 
4489 5 0 0 0 
261 1 0 -1.77636e-15 0 
262 2 0 -1.77636e-15 0 
263 3 0 0 0 
264 4 0 0 0 
265 5 1.38778e-17 0 0 
266 6 1.38778e-17 0 0 
267 5 -4.44089e-16 0 0 
268 6 -4.44089e-16 0 0 
269 5 0 0 0 
270 6 0 0 0 
271 1 1.38778e-17 0 0 
272 2 1.38778e-17 0 0 
273 3 0 0 0 
274 4 0 0 0 
275 5 0 0 0 
276 6 0 0 0 
277 5 0 0 0 
278 6 0 0 0 
279 5 -4.44089e-16 0 0 
280 6 -4.44089e-16 0 0 
281 1 0 0 0 
282 2 0 0 0 
283 3 -4.44089e-16 0 0 
284 4 -4.44089e-16 0 0 
285 5 2.77556e-17 0 0 
286 6 2.77556e-17 0 0 
287 5 0 0 0 
288 6 0 0 0 
289 5 -4.44089e-16 0 0 
290 6 -4.44089e-16 0 0 
291 1 0 -1.77636e-15 0 
292 2 0 -1.77636e-15 0 
293 3 0 0 0 
294 4 0 0 0 
295 5 0 0 0 
296 6 0 0 0 
297 5 0 0 0 
298 6 0 0 0 
299 5 -4.44089e-16 -1.77636e-15 0 
300 6 -4.44089e-16 -1.77636e-15 0 
4488 6 0 0 0 
4487 5 0 0 0 
353 3 0 0 0 
354 4 0 0 0 
355 5 1.38778e-17 0 0 
356 6 1.38778e-17 0 0 
357 5 0 0 0 
358 6 0 0 0 
4486 6 0 0 0 
4485 5 0 0 0 
361 1 0 0 0 
362 2 0 0 0 
363 3 0 0 0 
364 4 0 0 0 
365 5 2.77556e-17 0 0 
366 6 2.77556e-17 0 0 
367 5 0 0 0 
368 6 0 0 0 
369 5 0 0 0 
370 6 0 0 0 
371 1 0 0 0 
372 2 0 0 0 
373 3 4.44089e-16 0 0 
374 4 4.44089e-16 0 0 
375 5 0 0 0 
376 6 0 0 0 
377 5 0 0 0 
378 6 0 0 0 
379 5 0 0 0 
380 6 0 0 0 
381 1 0 -3.55271e-15 0 
382 2 0 -3.55271e-15 0 
383 3 0 0 0 
384 4 0 0 0 
385 5 0 0 0 
386 6 0 0 0 
387 5 0 0 0 
388 6 0 0 0 
389 5 0 -1.77636e-15 0 
390 6 0 -1.77636e-15 0 
391 1 0 0 0 
392 2 0 0 0 
393 3 0 0 0 
394 4 0 0 0 
395 5 0 0 0 
396 6 0 0 0 
397 5 4.44089e-16 0 0 
398 6 4.44089e-16 0 0 
399 5 0 -1.77636e-15 0 
400 6 0 -1.77636e-15 0 
4484 4 0 0 0 
4483 3 0 0 0 
453 3 0 -3.55271e-15 0 
454 4 0 -3.55271e-15 0 
455 5 0 -3.55271e-15 0 
456 6 0 -3.55271e-15 0 
457 5 0 -3.55271e-15 0 
458 6 0 -3.55271e-15 0 
4482 2 -3.55271e-15 0 0 
4481 1 -3.55271e-15 0 0 
461 1 0 0 0 
462 2 0 0 0 
463 3 0 0 0 
464 4 0 0 0 
465 5 2.77556e-17 0 0 
466 6 2.77556e-17 0 0 
467 5 0 0 0 
468 6 0 0 0 
469 5 0 0 0 
470 6 0 0 0 
471 1 0 0 0 
472 2 0 0 0 
473 3 0 0 0 
474 4 0 0 0 
475 5 0 0 0 
476 6 0 0 0 
477 5 0 0 0 
478 6 0 0 0 
479 5 0 0 0 
480 6 0 0 0 
481 1 0 0 0 
482 2 0 0 0 
483 3 0 0 0 
484 4 0 0 0 
485 5 0 0 0 
486 6 0 0 0 
487 5 0 0 0 
488 6 0 0 0 
489 5 0 0 0 
490 6 0 0 0 
491 1 0 0 0 
492 2 0 0 0 
493 3 0 0 0 
494 4 0 0 0 
495 5 0 0 0 
496 6 0 0 0 
497 5 0 0 0 
498 6 0 0 0 
499 5 0 0 0 
500 6 0 0 0 
4480 6 0 0 0 