LAMMPS Description

     10000  atoms
     5000  bonds
     0  angles
     0  dihedrals
     0  impropers

     6  atom types
     3  bond types

  0.0 40.1 xlo xhi
  0.0 40.1 ylo yhi
  0.0 40.1 zlo zhi

Masses

      1		135.327
      2	002.000
      3		045.867
      4	002.000
      5	013.9994
      6	002.0000

Atoms # full

1 1 1 05.042 0.0 0.0 0.0
2 1 2 -2.870 0.0 0.0 0.0
3 2 3 04.616 2.005 2.005 2.005
4 2 4 -1.544 2.005 2.005 2.005
5 3 5 00.970 0.0 2.005 2.005
6 3 6 -2.718 0.0 2.005 2.005
7 4 5 00.970 2.005 0.0 2.005
8 4 6 -2.718 2.005 0.0 2.005
9 5 5 00.970 2.005 2.005 0.0
10 5 6 -2.718 2.005 2.005 0.0
11 6 1 05.042 0.0 0.0 4.01
12 6 2 -2.870 0.0 0.0 4.01
13 7 3 04.616 2.005 2.005 6.015
14 7 4 -1.544 2.005 2.005 6.015
15 8 5 00.970 0.0 2.005 6.015
16 8 6 -2.718 0.0 2.005 6.015
17 9 5 00.970 2.005 0.0 6.015
18 9 6 -2.718 2.005 0.0 6.015
19 10 5 00.970 2.005 2.005 4.01
20 10 6 -2.718 2.005 2.005 4.01
21 11 1 05.042 0.0 0.0 8.02
22 11 2 -2.870 0.0 0.0 8.02
23 12 3 04.616 2.005 2.005 10.025
24 12 4 -1.544 2.005 2.005 10.025
25 13 5 00.970 0.0 2.005 10.025
26 13 6 -2.718 0.0 2.005 10.025
27 14 5 00.970 2.005 0.0 10.025
28 14 6 -2.718 2.005 0.0 10.025
29 15 5 00.970 2.005 2.005 8.02
30 15 6 -2.718 2.005 2.005 8.02
31 16 1 05.042 0.0 0.0 12.03
32 16 2 -2.870 0.0 0.0 12.03
33 17 3 04.616 2.005 2.005 14.035
34 17 4 -1.544 2.005 2.005 14.035
35 18 5 00.970 0.0 2.005 14.035
36 18 6 -2.718 0.0 2.005 14.035
37 19 5 00.970 2.005 0.0 14.035
38 19 6 -2.718 2.005 0.0 14.035
39 20 5 00.970 2.005 2.005 12.03
40 20 6 -2.718 2.005 2.005 12.03
41 21 1 05.042 0.0 0.0 16.04
42 21 2 -2.870 0.0 0.0 16.04
43 22 3 04.616 2.005 2.005 18.045
44 22 4 -1.544 2.005 2.005 18.045
45 23 5 00.970 0.0 2.005 18.045
46 23 6 -2.718 0.0 2.005 18.045
47 24 5 00.970 2.005 0.0 18.045
48 24 6 -2.718 2.005 0.0 18.045
49 25 5 00.970 2.005 2.005 16.04
50 25 6 -2.718 2.005 2.005 16.04
51 26 1 05.042 0.0 0.0 20.05
52 26 2 -2.870 0.0 0.0 20.05
53 27 3 04.616 2.005 2.005 22.055
54 27 4 -1.544 2.005 2.005 22.055
55 28 5 00.970 0.0 2.005 22.055
56 28 6 -2.718 0.0 2.005 22.055
57 29 5 00.970 2.005 0.0 22.055
58 29 6 -2.718 2.005 0.0 22.055
59 30 5 00.970 2.005 2.005 20.05
60 30 6 -2.718 2.005 2.005 20.05
61 31 1 05.042 0.0 0.0 24.06
62 31 2 -2.870 0.0 0.0 24.06
63 32 3 04.616 2.005 2.005 26.065
64 32 4 -1.544 2.005 2.005 26.065
65 33 5 00.970 0.0 2.005 26.065
66 33 6 -2.718 0.0 2.005 26.065
67 34 5 00.970 2.005 0.0 26.065
68 34 6 -2.718 2.005 0.0 26.065
69 35 5 00.970 2.005 2.005 24.06
70 35 6 -2.718 2.005 2.005 24.06
71 36 1 05.042 0.0 0.0 28.07
72 36 2 -2.870 0.0 0.0 28.07
73 37 3 04.616 2.005 2.005 30.075
74 37 4 -1.544 2.005 2.005 30.075
75 38 5 00.970 0.0 2.005 30.075
76 38 6 -2.718 0.0 2.005 30.075
77 39 5 00.970 2.005 0.0 30.075
78 39 6 -2.718 2.005 0.0 30.075
79 40 5 00.970 2.005 2.005 28.07
80 40 6 -2.718 2.005 2.005 28.07
81 41 1 05.042 0.0 0.0 32.08
82 41 2 -2.870 0.0 0.0 32.08
83 42 3 04.616 2.005 2.005 34.085
84 42 4 -1.544 2.005 2.005 34.085
85 43 5 00.970 0.0 2.005 34.085
86 43 6 -2.718 0.0 2.005 34.085
87 44 5 00.970 2.005 0.0 34.085
88 44 6 -2.718 2.005 0.0 34.085
89 45 5 00.970 2.005 2.005 32.08
90 45 6 -2.718 2.005 2.005 32.08
91 46 1 05.042 0.0 0.0 36.09
92 46 2 -2.870 0.0 0.0 36.09
93 47 3 04.616 2.005 2.005 38.095
94 47 4 -1.544 2.005 2.005 38.095
95 48 5 00.970 0.0 2.005 38.095
96 48 6 -2.718 0.0 2.005 38.095
97 49 5 00.970 2.005 0.0 38.095
98 49 6 -2.718 2.005 0.0 38.095
99 50 5 00.970 2.005 2.005 36.09
100 50 6 -2.718 2.005 2.005 36.09
101 51 1 05.042 0.0 4.01 0.0
102 51 2 -2.870 0.0 4.01 0.0
103 52 3 04.616 2.005 6.015 2.005
104 52 4 -1.544 2.005 6.015 2.005
105 53 5 00.970 0.0 6.015 2.005
106 53 6 -2.718 0.0 6.015 2.005
107 54 5 00.970 2.005 4.01 2.005
108 54 6 -2.718 2.005 4.01 2.005
109 55 5 00.970 2.005 6.015 0.0
110 55 6 -2.718 2.005 6.015 0.0
111 56 1 05.042 0.0 4.01 4.01
112 56 2 -2.870 0.0 4.01 4.01
113 57 3 04.616 2.005 6.015 6.015
114 57 4 -1.544 2.005 6.015 6.015
115 58 5 00.970 0.0 6.015 6.015
116 58 6 -2.718 0.0 6.015 6.015
117 59 5 00.970 2.005 4.01 6.015
118 59 6 -2.718 2.005 4.01 6.015
119 60 5 00.970 2.005 6.015 4.01
120 60 6 -2.718 2.005 6.015 4.01
121 61 1 05.042 0.0 4.01 8.02
122 61 2 -2.870 0.0 4.01 8.02
123 62 3 04.616 2.005 6.015 10.025
124 62 4 -1.544 2.005 6.015 10.025
125 63 5 00.970 0.0 6.015 10.025
126 63 6 -2.718 0.0 6.015 10.025
127 64 5 00.970 2.005 4.01 10.025
128 64 6 -2.718 2.005 4.01 10.025
129 65 5 00.970 2.005 6.015 8.02
130 65 6 -2.718 2.005 6.015 8.02
131 66 1 05.042 0.0 4.01 12.03
132 66 2 -2.870 0.0 4.01 12.03
133 67 3 04.616 2.005 6.015 14.035
134 67 4 -1.544 2.005 6.015 14.035
135 68 5 00.970 0.0 6.015 14.035
136 68 6 -2.718 0.0 6.015 14.035
137 69 5 00.970 2.005 4.01 14.035
138 69 6 -2.718 2.005 4.01 14.035
139 70 5 00.970 2.005 6.015 12.03
140 70 6 -2.718 2.005 6.015 12.03
141 71 1 05.042 0.0 4.01 16.04
142 71 2 -2.870 0.0 4.01 16.04
143 72 3 04.616 2.005 6.015 18.045
144 72 4 -1.544 2.005 6.015 18.045
145 73 5 00.970 0.0 6.015 18.045
146 73 6 -2.718 0.0 6.015 18.045
147 74 5 00.970 2.005 4.01 18.045
148 74 6 -2.718 2.005 4.01 18.045
149 75 5 00.970 2.005 6.015 16.04
150 75 6 -2.718 2.005 6.015 16.04
151 76 1 05.042 0.0 4.01 20.05
152 76 2 -2.870 0.0 4.01 20.05
153 77 3 04.616 2.005 6.015 22.055
154 77 4 -1.544 2.005 6.015 22.055
155 78 5 00.970 0.0 6.015 22.055
156 78 6 -2.718 0.0 6.015 22.055
157 79 5 00.970 2.005 4.01 22.055
158 79 6 -2.718 2.005 4.01 22.055
159 80 5 00.970 2.005 6.015 20.05
160 80 6 -2.718 2.005 6.015 20.05
161 81 1 05.042 0.0 4.01 24.06
162 81 2 -2.870 0.0 4.01 24.06
163 82 3 04.616 2.005 6.015 26.065
164 82 4 -1.544 2.005 6.015 26.065
165 83 5 00.970 0.0 6.015 26.065
166 83 6 -2.718 0.0 6.015 26.065
167 84 5 00.970 2.005 4.01 26.065
168 84 6 -2.718 2.005 4.01 26.065
169 85 5 00.970 2.005 6.015 24.06
170 85 6 -2.718 2.005 6.015 24.06
171 86 1 05.042 0.0 4.01 28.07
172 86 2 -2.870 0.0 4.01 28.07
173 87 3 04.616 2.005 6.015 30.075
174 87 4 -1.544 2.005 6.015 30.075
175 88 5 00.970 0.0 6.015 30.075
176 88 6 -2.718 0.0 6.015 30.075
177 89 5 00.970 2.005 4.01 30.075
178 89 6 -2.718 2.005 4.01 30.075
179 90 5 00.970 2.005 6.015 28.07
180 90 6 -2.718 2.005 6.015 28.07
181 91 1 05.042 0.0 4.01 32.08
182 91 2 -2.870 0.0 4.01 32.08
183 92 3 04.616 2.005 6.015 34.085
184 92 4 -1.544 2.005 6.015 34.085
185 93 5 00.970 0.0 6.015 34.085
186 93 6 -2.718 0.0 6.015 34.085
187 94 5 00.970 2.005 4.01 34.085
188 94 6 -2.718 2.005 4.01 34.085
189 95 5 00.970 2.005 6.015 32.08
190 95 6 -2.718 2.005 6.015 32.08
191 96 1 05.042 0.0 4.01 36.09
192 96 2 -2.870 0.0 4.01 36.09
193 97 3 04.616 2.005 6.015 38.095
194 97 4 -1.544 2.005 6.015 38.095
195 98 5 00.970 0.0 6.015 38.095
196 98 6 -2.718 0.0 6.015 38.095
197 99 5 00.970 2.005 4.01 38.095
198 99 6 -2.718 2.005 4.01 38.095
199 100 5 00.970 2.005 6.015 36.09
200 100 6 -2.718 2.005 6.015 36.09
201 101 1 05.042 0.0 8.02 0.0
202 101 2 -2.870 0.0 8.02 0.0
203 102 3 04.616 2.005 10.025 2.005
204 102 4 -1.544 2.005 10.025 2.005
205 103 5 00.970 0.0 10.025 2.005
206 103 6 -2.718 0.0 10.025 2.005
207 104 5 00.970 2.005 8.02 2.005
208 104 6 -2.718 2.005 8.02 2.005
209 105 5 00.970 2.005 10.025 0.0
210 105 6 -2.718 2.005 10.025 0.0
211 106 1 05.042 0.0 8.02 4.01
212 106 2 -2.870 0.0 8.02 4.01
213 107 3 04.616 2.005 10.025 6.015
214 107 4 -1.544 2.005 10.025 6.015
215 108 5 00.970 0.0 10.025 6.015
216 108 6 -2.718 0.0 10.025 6.015
217 109 5 00.970 2.005 8.02 6.015
218 109 6 -2.718 2.005 8.02 6.015
219 110 5 00.970 2.005 10.025 4.01
220 110 6 -2.718 2.005 10.025 4.01
221 111 1 05.042 0.0 8.02 8.02
222 111 2 -2.870 0.0 8.02 8.02
223 112 3 04.616 2.005 10.025 10.025
224 112 4 -1.544 2.005 10.025 10.025
225 113 5 00.970 0.0 10.025 10.025
226 113 6 -2.718 0.0 10.025 10.025
227 114 5 00.970 2.005 8.02 10.025
228 114 6 -2.718 2.005 8.02 10.025
229 115 5 00.970 2.005 10.025 8.02
230 115 6 -2.718 2.005 10.025 8.02
231 116 1 05.042 0.0 8.02 12.03
232 116 2 -2.870 0.0 8.02 12.03
233 117 3 04.616 2.005 10.025 14.035
234 117 4 -1.544 2.005 10.025 14.035
235 118 5 00.970 0.0 10.025 14.035
236 118 6 -2.718 0.0 10.025 14.035
237 119 5 00.970 2.005 8.02 14.035
238 119 6 -2.718 2.005 8.02 14.035
239 120 5 00.970 2.005 10.025 12.03
240 120 6 -2.718 2.005 10.025 12.03
241 121 1 05.042 0.0 8.02 16.04
242 121 2 -2.870 0.0 8.02 16.04
243 122 3 04.616 2.005 10.025 18.045
244 122 4 -1.544 2.005 10.025 18.045
245 123 5 00.970 0.0 10.025 18.045
246 123 6 -2.718 0.0 10.025 18.045
247 124 5 00.970 2.005 8.02 18.045
248 124 6 -2.718 2.005 8.02 18.045
249 125 5 00.970 2.005 10.025 16.04
250 125 6 -2.718 2.005 10.025 16.04
251 126 1 05.042 0.0 8.02 20.05
252 126 2 -2.870 0.0 8.02 20.05
253 127 3 04.616 2.005 10.025 22.055
254 127 4 -1.544 2.005 10.025 22.055
255 128 5 00.970 0.0 10.025 22.055
256 128 6 -2.718 0.0 10.025 22.055
257 129 5 00.970 2.005 8.02 22.055
258 129 6 -2.718 2.005 8.02 22.055
259 130 5 00.970 2.005 10.025 20.05
260 130 6 -2.718 2.005 10.025 20.05
261 131 1 05.042 0.0 8.02 24.06
262 131 2 -2.870 0.0 8.02 24.06
263 132 3 04.616 2.005 10.025 26.065
264 132 4 -1.544 2.005 10.025 26.065
265 133 5 00.970 0.0 10.025 26.065
266 133 6 -2.718 0.0 10.025 26.065
267 134 5 00.970 2.005 8.02 26.065
268 134 6 -2.718 2.005 8.02 26.065
269 135 5 00.970 2.005 10.025 24.06
270 135 6 -2.718 2.005 10.025 24.06
271 136 1 05.042 0.0 8.02 28.07
272 136 2 -2.870 0.0 8.02 28.07
273 137 3 04.616 2.005 10.025 30.075
274 137 4 -1.544 2.005 10.025 30.075
275 138 5 00.970 0.0 10.025 30.075
276 138 6 -2.718 0.0 10.025 30.075
277 139 5 00.970 2.005 8.02 30.075
278 139 6 -2.718 2.005 8.02 30.075
279 140 5 00.970 2.005 10.025 28.07
280 140 6 -2.718 2.005 10.025 28.07
281 141 1 05.042 0.0 8.02 32.08
282 141 2 -2.870 0.0 8.02 32.08
283 142 3 04.616 2.005 10.025 34.085
284 142 4 -1.544 2.005 10.025 34.085
285 143 5 00.970 0.0 10.025 34.085
286 143 6 -2.718 0.0 10.025 34.085
287 144 5 00.970 2.005 8.02 34.085
288 144 6 -2.718 2.005 8.02 34.085
289 145 5 00.970 2.005 10.025 32.08
290 145 6 -2.718 2.005 10.025 32.08
291 146 1 05.042 0.0 8.02 36.09
292 146 2 -2.870 0.0 8.02 36.09
293 147 3 04.616 2.005 10.025 38.095
294 147 4 -1.544 2.005 10.025 38.095
295 148 5 00.970 0.0 10.025 38.095
296 148 6 -2.718 0.0 10.025 38.095
297 149 5 00.970 2.005 8.02 38.095
298 149 6 -2.718 2.005 8.02 38.095
299 150 5 00.970 2.005 10.025 36.09
300 150 6 -2.718 2.005 10.025 36.09
301 151 1 05.042 0.0 12.03 0.0
302 151 2 -2.870 0.0 12.03 0.0
303 152 3 04.616 2.005 14.035 2.005
304 152 4 -1.544 2.005 14.035 2.005
305 153 5 00.970 0.0 14.035 2.005
306 153 6 -2.718 0.0 14.035 2.005
307 154 5 00.970 2.005 12.03 2.005
308 154 6 -2.718 2.005 12.03 2.005
309 155 5 00.970 2.005 14.035 0.0
310 155 6 -2.718 2.005 14.035 0.0
311 156 1 05.042 0.0 12.03 4.01
312 156 2 -2.870 0.0 12.03 4.01
313 157 3 04.616 2.005 14.035 6.015
314 157 4 -1.544 2.005 14.035 6.015
315 158 5 00.970 0.0 14.035 6.015
316 158 6 -2.718 0.0 14.035 6.015
317 159 5 00.970 2.005 12.03 6.015
318 159 6 -2.718 2.005 12.03 6.015
319 160 5 00.970 2.005 14.035 4.01
320 160 6 -2.718 2.005 14.035 4.01
321 161 1 05.042 0.0 12.03 8.02
322 161 2 -2.870 0.0 12.03 8.02
323 162 3 04.616 2.005 14.035 10.025
324 162 4 -1.544 2.005 14.035 10.025
325 163 5 00.970 0.0 14.035 10.025
326 163 6 -2.718 0.0 14.035 10.025
327 164 5 00.970 2.005 12.03 10.025
328 164 6 -2.718 2.005 12.03 10.025
329 165 5 00.970 2.005 14.035 8.02
330 165 6 -2.718 2.005 14.035 8.02
331 166 1 05.042 0.0 12.03 12.03
332 166 2 -2.870 0.0 12.03 12.03
333 167 3 04.616 2.005 14.035 14.035
334 167 4 -1.544 2.005 14.035 14.035
335 168 5 00.970 0.0 14.035 14.035
336 168 6 -2.718 0.0 14.035 14.035
337 169 5 00.970 2.005 12.03 14.035
338 169 6 -2.718 2.005 12.03 14.035
339 170 5 00.970 2.005 14.035 12.03
340 170 6 -2.718 2.005 14.035 12.03
341 171 1 05.042 0.0 12.03 16.04
342 171 2 -2.870 0.0 12.03 16.04
343 172 3 04.616 2.005 14.035 18.045
344 172 4 -1.544 2.005 14.035 18.045
345 173 5 00.970 0.0 14.035 18.045
346 173 6 -2.718 0.0 14.035 18.045
347 174 5 00.970 2.005 12.03 18.045
348 174 6 -2.718 2.005 12.03 18.045
349 175 5 00.970 2.005 14.035 16.04
350 175 6 -2.718 2.005 14.035 16.04
351 176 1 05.042 0.0 12.03 20.05
352 176 2 -2.870 0.0 12.03 20.05
353 177 3 04.616 2.005 14.035 22.055
354 177 4 -1.544 2.005 14.035 22.055
355 178 5 00.970 0.0 14.035 22.055
356 178 6 -2.718 0.0 14.035 22.055
357 179 5 00.970 2.005 12.03 22.055
358 179 6 -2.718 2.005 12.03 22.055
359 180 5 00.970 2.005 14.035 20.05
360 180 6 -2.718 2.005 14.035 20.05
361 181 1 05.042 0.0 12.03 24.06
362 181 2 -2.870 0.0 12.03 24.06
363 182 3 04.616 2.005 14.035 26.065
364 182 4 -1.544 2.005 14.035 26.065
365 183 5 00.970 0.0 14.035 26.065
366 183 6 -2.718 0.0 14.035 26.065
367 184 5 00.970 2.005 12.03 26.065
368 184 6 -2.718 2.005 12.03 26.065
369 185 5 00.970 2.005 14.035 24.06
370 185 6 -2.718 2.005 14.035 24.06
371 186 1 05.042 0.0 12.03 28.07
372 186 2 -2.870 0.0 12.03 28.07
373 187 3 04.616 2.005 14.035 30.075
374 187 4 -1.544 2.005 14.035 30.075
375 188 5 00.970 0.0 14.035 30.075
376 188 6 -2.718 0.0 14.035 30.075
377 189 5 00.970 2.005 12.03 30.075
378 189 6 -2.718 2.005 12.03 30.075
379 190 5 00.970 2.005 14.035 28.07
380 190 6 -2.718 2.005 14.035 28.07
381 191 1 05.042 0.0 12.03 32.08
382 191 2 -2.870 0.0 12.03 32.08
383 192 3 04.616 2.005 14.035 34.085
384 192 4 -1.544 2.005 14.035 34.085
385 193 5 00.970 0.0 14.035 34.085
386 193 6 -2.718 0.0 14.035 34.085
387 194 5 00.970 2.005 12.03 34.085
388 194 6 -2.718 2.005 12.03 34.085
389 195 5 00.970 2.005 14.035 32.08
390 195 6 -2.718 2.005 14.035 32.08
391 196 1 05.042 0.0 12.03 36.09
392 196 2 -2.870 0.0 12.03 36.09
393 197 3 04.616 2.005 14.035 38.095
394 197 4 -1.544 2.005 14.035 38.095
395 198 5 00.970 0.0 14.035 38.095
396 198 6 -2.718 0.0 14.035 38.095
397 199 5 00.970 2.005 12.03 38.095
398 199 6 -2.718 2.005 12.03 38.095
399 200 5 00.970 2.005 14.035 36.09
400 200 6 -2.718 2.005 14.035 36.09
401 201 1 05.042 0.0 16.04 0.0
402 201 2 -2.870 0.0 16.04 0.0
403 202 3 04.616 2.005 18.045 2.005
404 202 4 -1.544 2.005 18.045 2.005
405 203 5 00.970 0.0 18.045 2.005
406 203 6 -2.718 0.0 18.045 2.005
407 204 5 00.970 2.005 16.04 2.005
408 204 6 -2.718 2.005 16.04 2.005
409 205 5 00.970 2.005 18.045 0.0
410 205 6 -2.718 2.005 18.045 0.0
411 206 1 05.042 0.0 16.04 4.01
412 206 2 -2.870 0.0 16.04 4.01
413 207 3 04.616 2.005 18.045 6.015
414 207 4 -1.544 2.005 18.045 6.015
415 208 5 00.970 0.0 18.045 6.015
416 208 6 -2.718 0.0 18.045 6.015
417 209 5 00.970 2.005 16.04 6.015
418 209 6 -2.718 2.005 16.04 6.015
419 210 5 00.970 2.005 18.045 4.01
420 210 6 -2.718 2.005 18.045 4.01
421 211 1 05.042 0.0 16.04 8.02
422 211 2 -2.870 0.0 16.04 8.02
423 212 3 04.616 2.005 18.045 10.025
424 212 4 -1.544 2.005 18.045 10.025
425 213 5 00.970 0.0 18.045 10.025
426 213 6 -2.718 0.0 18.045 10.025
427 214 5 00.970 2.005 16.04 10.025
428 214 6 -2.718 2.005 16.04 10.025
429 215 5 00.970 2.005 18.045 8.02
430 215 6 -2.718 2.005 18.045 8.02
431 216 1 05.042 0.0 16.04 12.03
432 216 2 -2.870 0.0 16.04 12.03
433 217 3 04.616 2.005 18.045 14.035
434 217 4 -1.544 2.005 18.045 14.035
435 218 5 00.970 0.0 18.045 14.035
436 218 6 -2.718 0.0 18.045 14.035
437 219 5 00.970 2.005 16.04 14.035
438 219 6 -2.718 2.005 16.04 14.035
439 220 5 00.970 2.005 18.045 12.03
440 220 6 -2.718 2.005 18.045 12.03
441 221 1 05.042 0.0 16.04 16.04
442 221 2 -2.870 0.0 16.04 16.04
443 222 3 04.616 2.005 18.045 18.045
444 222 4 -1.544 2.005 18.045 18.045
445 223 5 00.970 0.0 18.045 18.045
446 223 6 -2.718 0.0 18.045 18.045
447 224 5 00.970 2.005 16.04 18.045
448 224 6 -2.718 2.005 16.04 18.045
449 225 5 00.970 2.005 18.045 16.04
450 225 6 -2.718 2.005 18.045 16.04
451 226 1 05.042 0.0 16.04 20.05
452 226 2 -2.870 0.0 16.04 20.05
453 227 3 04.616 2.005 18.045 22.055
454 227 4 -1.544 2.005 18.045 22.055
455 228 5 00.970 0.0 18.045 22.055
456 228 6 -2.718 0.0 18.045 22.055
457 229 5 00.970 2.005 16.04 22.055
458 229 6 -2.718 2.005 16.04 22.055
459 230 5 00.970 2.005 18.045 20.05
460 230 6 -2.718 2.005 18.045 20.05
461 231 1 05.042 0.0 16.04 24.06
462 231 2 -2.870 0.0 16.04 24.06
463 232 3 04.616 2.005 18.045 26.065
464 232 4 -1.544 2.005 18.045 26.065
465 233 5 00.970 0.0 18.045 26.065
466 233 6 -2.718 0.0 18.045 26.065
467 234 5 00.970 2.005 16.04 26.065
468 234 6 -2.718 2.005 16.04 26.065
469 235 5 00.970 2.005 18.045 24.06
470 235 6 -2.718 2.005 18.045 24.06
471 236 1 05.042 0.0 16.04 28.07
472 236 2 -2.870 0.0 16.04 28.07
473 237 3 04.616 2.005 18.045 30.075
474 237 4 -1.544 2.005 18.045 30.075
475 238 5 00.970 0.0 18.045 30.075
476 238 6 -2.718 0.0 18.045 30.075
477 239 5 00.970 2.005 16.04 30.075
478 239 6 -2.718 2.005 16.04 30.075
479 240 5 00.970 2.005 18.045 28.07
480 240 6 -2.718 2.005 18.045 28.07
481 241 1 05.042 0.0 16.04 32.08
482 241 2 -2.870 0.0 16.04 32.08
483 242 3 04.616 2.005 18.045 34.085
484 242 4 -1.544 2.005 18.045 34.085
485 243 5 00.970 0.0 18.045 34.085
486 243 6 -2.718 0.0 18.045 34.085
487 244 5 00.970 2.005 16.04 34.085
488 244 6 -2.718 2.005 16.04 34.085
489 245 5 00.970 2.005 18.045 32.08
490 245 6 -2.718 2.005 18.045 32.08
491 246 1 05.042 0.0 16.04 36.09
492 246 2 -2.870 0.0 16.04 36.09
493 247 3 04.616 2.005 18.045 38.095
494 247 4 -1.544 2.005 18.045 38.095
495 248 5 00.970 0.0 18.045 38.095
496 248 6 -2.718 0.0 18.045 38.095
497 249 5 00.970 2.005 16.04 38.095
498 249 6 -2.718 2.005 16.04 38.095
499 250 5 00.970 2.005 18.045 36.09
500 250 6 -2.718 2.005 18.045 36.09
501 251 1 05.042 0.0 20.05 0.0
502 251 2 -2.870 0.0 20.05 0.0
503 252 3 04.616 2.005 22.055 2.005
504 252 4 -1.544 2.005 22.055 2.005
505 253 5 00.970 0.0 22.055 2.005
506 253 6 -2.718 0.0 22.055 2.005
507 254 5 00.970 2.005 20.05 2.005
508 254 6 -2.718 2.005 20.05 2.005
509 255 5 00.970 2.005 22.055 0.0
510 255 6 -2.718 2.005 22.055 0.0
511 256 1 05.042 0.0 20.05 4.01
512 256 2 -2.870 0.0 20.05 4.01
513 257 3 04.616 2.005 22.055 6.015
514 257 4 -1.544 2.005 22.055 6.015
515 258 5 00.970 0.0 22.055 6.015
516 258 6 -2.718 0.0 22.055 6.015
517 259 5 00.970 2.005 20.05 6.015
518 259 6 -2.718 2.005 20.05 6.015
519 260 5 00.970 2.005 22.055 4.01
520 260 6 -2.718 2.005 22.055 4.01
521 261 1 05.042 0.0 20.05 8.02
522 261 2 -2.870 0.0 20.05 8.02
523 262 3 04.616 2.005 22.055 10.025
524 262 4 -1.544 2.005 22.055 10.025
525 263 5 00.970 0.0 22.055 10.025
526 263 6 -2.718 0.0 22.055 10.025
527 264 5 00.970 2.005 20.05 10.025
528 264 6 -2.718 2.005 20.05 10.025
529 265 5 00.970 2.005 22.055 8.02
530 265 6 -2.718 2.005 22.055 8.02
531 266 1 05.042 0.0 20.05 12.03
532 266 2 -2.870 0.0 20.05 12.03
533 267 3 04.616 2.005 22.055 14.035
534 267 4 -1.544 2.005 22.055 14.035
535 268 5 00.970 0.0 22.055 14.035
536 268 6 -2.718 0.0 22.055 14.035
537 269 5 00.970 2.005 20.05 14.035
538 269 6 -2.718 2.005 20.05 14.035
539 270 5 00.970 2.005 22.055 12.03
540 270 6 -2.718 2.005 22.055 12.03
541 271 1 05.042 0.0 20.05 16.04
542 271 2 -2.870 0.0 20.05 16.04
543 272 3 04.616 2.005 22.055 18.045
544 272 4 -1.544 2.005 22.055 18.045
545 273 5 00.970 0.0 22.055 18.045
546 273 6 -2.718 0.0 22.055 18.045
547 274 5 00.970 2.005 20.05 18.045
548 274 6 -2.718 2.005 20.05 18.045
549 275 5 00.970 2.005 22.055 16.04
550 275 6 -2.718 2.005 22.055 16.04
551 276 1 05.042 0.0 20.05 20.05
552 276 2 -2.870 0.0 20.05 20.05
553 277 3 04.616 2.005 22.055 22.055
554 277 4 -1.544 2.005 22.055 22.055
555 278 5 00.970 0.0 22.055 22.055
556 278 6 -2.718 0.0 22.055 22.055
557 279 5 00.970 2.005 20.05 22.055
558 279 6 -2.718 2.005 20.05 22.055
559 280 5 00.970 2.005 22.055 20.05
560 280 6 -2.718 2.005 22.055 20.05
561 281 1 05.042 0.0 20.05 24.06
562 281 2 -2.870 0.0 20.05 24.06
563 282 3 04.616 2.005 22.055 26.065
564 282 4 -1.544 2.005 22.055 26.065
565 283 5 00.970 0.0 22.055 26.065
566 283 6 -2.718 0.0 22.055 26.065
567 284 5 00.970 2.005 20.05 26.065
568 284 6 -2.718 2.005 20.05 26.065
569 285 5 00.970 2.005 22.055 24.06
570 285 6 -2.718 2.005 22.055 24.06
571 286 1 05.042 0.0 20.05 28.07
572 286 2 -2.870 0.0 20.05 28.07
573 287 3 04.616 2.005 22.055 30.075
574 287 4 -1.544 2.005 22.055 30.075
575 288 5 00.970 0.0 22.055 30.075
576 288 6 -2.718 0.0 22.055 30.075
577 289 5 00.970 2.005 20.05 30.075
578 289 6 -2.718 2.005 20.05 30.075
579 290 5 00.970 2.005 22.055 28.07
580 290 6 -2.718 2.005 22.055 28.07
581 291 1 05.042 0.0 20.05 32.08
582 291 2 -2.870 0.0 20.05 32.08
583 292 3 04.616 2.005 22.055 34.085
584 292 4 -1.544 2.005 22.055 34.085
585 293 5 00.970 0.0 22.055 34.085
586 293 6 -2.718 0.0 22.055 34.085
587 294 5 00.970 2.005 20.05 34.085
588 294 6 -2.718 2.005 20.05 34.085
589 295 5 00.970 2.005 22.055 32.08
590 295 6 -2.718 2.005 22.055 32.08
591 296 1 05.042 0.0 20.05 36.09
592 296 2 -2.870 0.0 20.05 36.09
593 297 3 04.616 2.005 22.055 38.095
594 297 4 -1.544 2.005 22.055 38.095
595 298 5 00.970 0.0 22.055 38.095
596 298 6 -2.718 0.0 22.055 38.095
597 299 5 00.970 2.005 20.05 38.095
598 299 6 -2.718 2.005 20.05 38.095
599 300 5 00.970 2.005 22.055 36.09
600 300 6 -2.718 2.005 22.055 36.09
601 301 1 05.042 0.0 24.06 0.0
602 301 2 -2.870 0.0 24.06 0.0
603 302 3 04.616 2.005 26.065 2.005
604 302 4 -1.544 2.005 26.065 2.005
605 303 5 00.970 0.0 26.065 2.005
606 303 6 -2.718 0.0 26.065 2.005
607 304 5 00.970 2.005 24.06 2.005
608 304 6 -2.718 2.005 24.06 2.005
609 305 5 00.970 2.005 26.065 0.0
610 305 6 -2.718 2.005 26.065 0.0
611 306 1 05.042 0.0 24.06 4.01
612 306 2 -2.870 0.0 24.06 4.01
613 307 3 04.616 2.005 26.065 6.015
614 307 4 -1.544 2.005 26.065 6.015
615 308 5 00.970 0.0 26.065 6.015
616 308 6 -2.718 0.0 26.065 6.015
617 309 5 00.970 2.005 24.06 6.015
618 309 6 -2.718 2.005 24.06 6.015
619 310 5 00.970 2.005 26.065 4.01
620 310 6 -2.718 2.005 26.065 4.01
621 311 1 05.042 0.0 24.06 8.02
622 311 2 -2.870 0.0 24.06 8.02
623 312 3 04.616 2.005 26.065 10.025
624 312 4 -1.544 2.005 26.065 10.025
625 313 5 00.970 0.0 26.065 10.025
626 313 6 -2.718 0.0 26.065 10.025
627 314 5 00.970 2.005 24.06 10.025
628 314 6 -2.718 2.005 24.06 10.025
629 315 5 00.970 2.005 26.065 8.02
630 315 6 -2.718 2.005 26.065 8.02
631 316 1 05.042 0.0 24.06 12.03
632 316 2 -2.870 0.0 24.06 12.03
633 317 3 04.616 2.005 26.065 14.035
634 317 4 -1.544 2.005 26.065 14.035
635 318 5 00.970 0.0 26.065 14.035
636 318 6 -2.718 0.0 26.065 14.035
637 319 5 00.970 2.005 24.06 14.035
638 319 6 -2.718 2.005 24.06 14.035
639 320 5 00.970 2.005 26.065 12.03
640 320 6 -2.718 2.005 26.065 12.03
641 321 1 05.042 0.0 24.06 16.04
642 321 2 -2.870 0.0 24.06 16.04
643 322 3 04.616 2.005 26.065 18.045
644 322 4 -1.544 2.005 26.065 18.045
645 323 5 00.970 0.0 26.065 18.045
646 323 6 -2.718 0.0 26.065 18.045
647 324 5 00.970 2.005 24.06 18.045
648 324 6 -2.718 2.005 24.06 18.045
649 325 5 00.970 2.005 26.065 16.04
650 325 6 -2.718 2.005 26.065 16.04
651 326 1 05.042 0.0 24.06 20.05
652 326 2 -2.870 0.0 24.06 20.05
653 327 3 04.616 2.005 26.065 22.055
654 327 4 -1.544 2.005 26.065 22.055
655 328 5 00.970 0.0 26.065 22.055
656 328 6 -2.718 0.0 26.065 22.055
657 329 5 00.970 2.005 24.06 22.055
658 329 6 -2.718 2.005 24.06 22.055
659 330 5 00.970 2.005 26.065 20.05
660 330 6 -2.718 2.005 26.065 20.05
661 331 1 05.042 0.0 24.06 24.06
662 331 2 -2.870 0.0 24.06 24.06
663 332 3 04.616 2.005 26.065 26.065
664 332 4 -1.544 2.005 26.065 26.065
665 333 5 00.970 0.0 26.065 26.065
666 333 6 -2.718 0.0 26.065 26.065
667 334 5 00.970 2.005 24.06 26.065
668 334 6 -2.718 2.005 24.06 26.065
669 335 5 00.970 2.005 26.065 24.06
670 335 6 -2.718 2.005 26.065 24.06
671 336 1 05.042 0.0 24.06 28.07
672 336 2 -2.870 0.0 24.06 28.07
673 337 3 04.616 2.005 26.065 30.075
674 337 4 -1.544 2.005 26.065 30.075
675 338 5 00.970 0.0 26.065 30.075
676 338 6 -2.718 0.0 26.065 30.075
677 339 5 00.970 2.005 24.06 30.075
678 339 6 -2.718 2.005 24.06 30.075
679 340 5 00.970 2.005 26.065 28.07
680 340 6 -2.718 2.005 26.065 28.07
681 341 1 05.042 0.0 24.06 32.08
682 341 2 -2.870 0.0 24.06 32.08
683 342 3 04.616 2.005 26.065 34.085
684 342 4 -1.544 2.005 26.065 34.085
685 343 5 00.970 0.0 26.065 34.085
686 343 6 -2.718 0.0 26.065 34.085
687 344 5 00.970 2.005 24.06 34.085
688 344 6 -2.718 2.005 24.06 34.085
689 345 5 00.970 2.005 26.065 32.08
690 345 6 -2.718 2.005 26.065 32.08
691 346 1 05.042 0.0 24.06 36.09
692 346 2 -2.870 0.0 24.06 36.09
693 347 3 04.616 2.005 26.065 38.095
694 347 4 -1.544 2.005 26.065 38.095
695 348 5 00.970 0.0 26.065 38.095
696 348 6 -2.718 0.0 26.065 38.095
697 349 5 00.970 2.005 24.06 38.095
698 349 6 -2.718 2.005 24.06 38.095
699 350 5 00.970 2.005 26.065 36.09
700 350 6 -2.718 2.005 26.065 36.09
701 351 1 05.042 0.0 28.07 0.0
702 351 2 -2.870 0.0 28.07 0.0
703 352 3 04.616 2.005 30.075 2.005
704 352 4 -1.544 2.005 30.075 2.005
705 353 5 00.970 0.0 30.075 2.005
706 353 6 -2.718 0.0 30.075 2.005
707 354 5 00.970 2.005 28.07 2.005
708 354 6 -2.718 2.005 28.07 2.005
709 355 5 00.970 2.005 30.075 0.0
710 355 6 -2.718 2.005 30.075 0.0
711 356 1 05.042 0.0 28.07 4.01
712 356 2 -2.870 0.0 28.07 4.01
713 357 3 04.616 2.005 30.075 6.015
714 357 4 -1.544 2.005 30.075 6.015
715 358 5 00.970 0.0 30.075 6.015
716 358 6 -2.718 0.0 30.075 6.015
717 359 5 00.970 2.005 28.07 6.015
718 359 6 -2.718 2.005 28.07 6.015
719 360 5 00.970 2.005 30.075 4.01
720 360 6 -2.718 2.005 30.075 4.01
721 361 1 05.042 0.0 28.07 8.02
722 361 2 -2.870 0.0 28.07 8.02
723 362 3 04.616 2.005 30.075 10.025
724 362 4 -1.544 2.005 30.075 10.025
725 363 5 00.970 0.0 30.075 10.025
726 363 6 -2.718 0.0 30.075 10.025
727 364 5 00.970 2.005 28.07 10.025
728 364 6 -2.718 2.005 28.07 10.025
729 365 5 00.970 2.005 30.075 8.02
730 365 6 -2.718 2.005 30.075 8.02
731 366 1 05.042 0.0 28.07 12.03
732 366 2 -2.870 0.0 28.07 12.03
733 367 3 04.616 2.005 30.075 14.035
734 367 4 -1.544 2.005 30.075 14.035
735 368 5 00.970 0.0 30.075 14.035
736 368 6 -2.718 0.0 30.075 14.035
737 369 5 00.970 2.005 28.07 14.035
738 369 6 -2.718 2.005 28.07 14.035
739 370 5 00.970 2.005 30.075 12.03
740 370 6 -2.718 2.005 30.075 12.03
741 371 1 05.042 0.0 28.07 16.04
742 371 2 -2.870 0.0 28.07 16.04
743 372 3 04.616 2.005 30.075 18.045
744 372 4 -1.544 2.005 30.075 18.045
745 373 5 00.970 0.0 30.075 18.045
746 373 6 -2.718 0.0 30.075 18.045
747 374 5 00.970 2.005 28.07 18.045
748 374 6 -2.718 2.005 28.07 18.045
749 375 5 00.970 2.005 30.075 16.04
750 375 6 -2.718 2.005 30.075 16.04
751 376 1 05.042 0.0 28.07 20.05
752 376 2 -2.870 0.0 28.07 20.05
753 377 3 04.616 2.005 30.075 22.055
754 377 4 -1.544 2.005 30.075 22.055
755 378 5 00.970 0.0 30.075 22.055
756 378 6 -2.718 0.0 30.075 22.055
757 379 5 00.970 2.005 28.07 22.055
758 379 6 -2.718 2.005 28.07 22.055
759 380 5 00.970 2.005 30.075 20.05
760 380 6 -2.718 2.005 30.075 20.05
761 381 1 05.042 0.0 28.07 24.06
762 381 2 -2.870 0.0 28.07 24.06
763 382 3 04.616 2.005 30.075 26.065
764 382 4 -1.544 2.005 30.075 26.065
765 383 5 00.970 0.0 30.075 26.065
766 383 6 -2.718 0.0 30.075 26.065
767 384 5 00.970 2.005 28.07 26.065
768 384 6 -2.718 2.005 28.07 26.065
769 385 5 00.970 2.005 30.075 24.06
770 385 6 -2.718 2.005 30.075 24.06
771 386 1 05.042 0.0 28.07 28.07
772 386 2 -2.870 0.0 28.07 28.07
773 387 3 04.616 2.005 30.075 30.075
774 387 4 -1.544 2.005 30.075 30.075
775 388 5 00.970 0.0 30.075 30.075
776 388 6 -2.718 0.0 30.075 30.075
777 389 5 00.970 2.005 28.07 30.075
778 389 6 -2.718 2.005 28.07 30.075
779 390 5 00.970 2.005 30.075 28.07
780 390 6 -2.718 2.005 30.075 28.07
781 391 1 05.042 0.0 28.07 32.08
782 391 2 -2.870 0.0 28.07 32.08
783 392 3 04.616 2.005 30.075 34.085
784 392 4 -1.544 2.005 30.075 34.085
785 393 5 00.970 0.0 30.075 34.085
786 393 6 -2.718 0.0 30.075 34.085
787 394 5 00.970 2.005 28.07 34.085
788 394 6 -2.718 2.005 28.07 34.085
789 395 5 00.970 2.005 30.075 32.08
790 395 6 -2.718 2.005 30.075 32.08
791 396 1 05.042 0.0 28.07 36.09
792 396 2 -2.870 0.0 28.07 36.09
793 397 3 04.616 2.005 30.075 38.095
794 397 4 -1.544 2.005 30.075 38.095
795 398 5 00.970 0.0 30.075 38.095
796 398 6 -2.718 0.0 30.075 38.095
797 399 5 00.970 2.005 28.07 38.095
798 399 6 -2.718 2.005 28.07 38.095
799 400 5 00.970 2.005 30.075 36.09
800 400 6 -2.718 2.005 30.075 36.09
801 401 1 05.042 0.0 32.08 0.0
802 401 2 -2.870 0.0 32.08 0.0
803 402 3 04.616 2.005 34.085 2.005
804 402 4 -1.544 2.005 34.085 2.005
805 403 5 00.970 0.0 34.085 2.005
806 403 6 -2.718 0.0 34.085 2.005
807 404 5 00.970 2.005 32.08 2.005
808 404 6 -2.718 2.005 32.08 2.005
809 405 5 00.970 2.005 34.085 0.0
810 405 6 -2.718 2.005 34.085 0.0
811 406 1 05.042 0.0 32.08 4.01
812 406 2 -2.870 0.0 32.08 4.01
813 407 3 04.616 2.005 34.085 6.015
814 407 4 -1.544 2.005 34.085 6.015
815 408 5 00.970 0.0 34.085 6.015
816 408 6 -2.718 0.0 34.085 6.015
817 409 5 00.970 2.005 32.08 6.015
818 409 6 -2.718 2.005 32.08 6.015
819 410 5 00.970 2.005 34.085 4.01
820 410 6 -2.718 2.005 34.085 4.01
821 411 1 05.042 0.0 32.08 8.02
822 411 2 -2.870 0.0 32.08 8.02
823 412 3 04.616 2.005 34.085 10.025
824 412 4 -1.544 2.005 34.085 10.025
825 413 5 00.970 0.0 34.085 10.025
826 413 6 -2.718 0.0 34.085 10.025
827 414 5 00.970 2.005 32.08 10.025
828 414 6 -2.718 2.005 32.08 10.025
829 415 5 00.970 2.005 34.085 8.02
830 415 6 -2.718 2.005 34.085 8.02
831 416 1 05.042 0.0 32.08 12.03
832 416 2 -2.870 0.0 32.08 12.03
833 417 3 04.616 2.005 34.085 14.035
834 417 4 -1.544 2.005 34.085 14.035
835 418 5 00.970 0.0 34.085 14.035
836 418 6 -2.718 0.0 34.085 14.035
837 419 5 00.970 2.005 32.08 14.035
838 419 6 -2.718 2.005 32.08 14.035
839 420 5 00.970 2.005 34.085 12.03
840 420 6 -2.718 2.005 34.085 12.03
841 421 1 05.042 0.0 32.08 16.04
842 421 2 -2.870 0.0 32.08 16.04
843 422 3 04.616 2.005 34.085 18.045
844 422 4 -1.544 2.005 34.085 18.045
845 423 5 00.970 0.0 34.085 18.045
846 423 6 -2.718 0.0 34.085 18.045
847 424 5 00.970 2.005 32.08 18.045
848 424 6 -2.718 2.005 32.08 18.045
849 425 5 00.970 2.005 34.085 16.04
850 425 6 -2.718 2.005 34.085 16.04
851 426 1 05.042 0.0 32.08 20.05
852 426 2 -2.870 0.0 32.08 20.05
853 427 3 04.616 2.005 34.085 22.055
854 427 4 -1.544 2.005 34.085 22.055
855 428 5 00.970 0.0 34.085 22.055
856 428 6 -2.718 0.0 34.085 22.055
857 429 5 00.970 2.005 32.08 22.055
858 429 6 -2.718 2.005 32.08 22.055
859 430 5 00.970 2.005 34.085 20.05
860 430 6 -2.718 2.005 34.085 20.05
861 431 1 05.042 0.0 32.08 24.06
862 431 2 -2.870 0.0 32.08 24.06