ITEM: TIMESTEP
0
ITEM: NUMBER OF ATOMS
10000
ITEM: BOX BOUNDS xy xz yz pp pp pp
0.0000000000000000e+00 4.0365952783984007e+01 1.3297639199200001e-01
0.0000000000000000e+00 4.0232976391992004e+01 1.3297639199200001e-01
0.0000000000000000e+00 4.0100000000000001e+01 1.3297639199200001e-01
ITEM: ATOMS id type xs ys zs
1 1 0 0 0
2 2 0 0 0
3 3 0.05 0.05 0.05
4 4 0.05 0.05 0.05
5 5 5.42101e-20 0.05 0.05
6 6 5.42101e-20 0.05 0.05
7 5 0.05 0 0.05
8 6 0.05 0 0.05
9 5 0.05 0.05 0
10 6 0.05 0.05 0
11 1 0 0 0.1
12 2 0 0 0.1
13 3 0.05 0.05 0.15
14 4 0.05 0.05 0.15
15 5 2.1684e-19 0.05 0.15
16 6 2.1684e-19 0.05 0.15
17 5 0.05 0 0.15
18 6 0.05 0 0.15
19 5 0.05 0.05 0.1
20 6 0.05 0.05 0.1
21 1 0 0 0.2
22 2 0 0 0.2
23 3 0.05 0.05 0.25
24 4 0.05 0.05 0.25
25 5 1.0842e-19 0.05 0.25
26 6 1.0842e-19 0.05 0.25
27 5 0.05 0 0.25
28 6 0.05 0 0.25
29 5 0.05 0.05 0.2
30 6 0.05 0.05 0.2
31 1 0 0 0.3
32 2 0 0 0.3
33 3 0.05 0.05 0.35
34 4 0.05 0.05 0.35
35 5 2.1684e-19 0.05 0.35
36 6 2.1684e-19 0.05 0.35
37 5 0.05 0 0.35
38 6 0.05 0 0.35
39 5 0.05 0.05 0.3
40 6 0.05 0.05 0.3
41 1 0 0 0.4
42 2 0 0 0.4
43 3 0.05 0.05 0.45
44 4 0.05 0.05 0.45
45 5 -2.1684e-19 0.05 0.45
46 6 -2.1684e-19 0.05 0.45
47 5 0.05 0 0.45
48 6 0.05 0 0.45
49 5 0.05 0.05 0.4
50 6 0.05 0.05 0.4
101 1 0 0.1 0
102 2 0 0.1 0
103 3 0.05 0.15 0.05
104 4 0.05 0.15 0.05
105 5 8.13152e-20 0.15 0.05
106 6 8.13152e-20 0.15 0.05
107 5 0.05 0.1 0.05
108 6 0.05 0.1 0.05
109 5 0.05 0.15 0
110 6 0.05 0.15 0
111 1 1.0842e-19 0.1 0.1
112 2 1.0842e-19 0.1 0.1
113 3 0.05 0.15 0.15
114 4 0.05 0.15 0.15
115 5 2.1684e-19 0.15 0.15
116 6 2.1684e-19 0.15 0.15
117 5 0.05 0.1 0.15
118 6 0.05 0.1 0.15
119 5 0.05 0.15 0.1
120 6 0.05 0.15 0.1
121 1 1.0842e-19 0.1 0.2
122 2 1.0842e-19 0.1 0.2
123 3 0.05 0.15 0.25
124 4 0.05 0.15 0.25
125 5 -1.0842e-19 0.15 0.25
126 6 -1.0842e-19 0.15 0.25
127 5 0.05 0.1 0.25
128 6 0.05 0.1 0.25
129 5 0.05 0.15 0.2
130 6 0.05 0.15 0.2
131 1 4.33681e-19 0.1 0.3
132 2 4.33681e-19 0.1 0.3
133 3 0.05 0.15 0.35
134 4 0.05 0.15 0.35
135 5 2.1684e-19 0.15 0.35
136 6 2.1684e-19 0.15 0.35
137 5 0.05 0.1 0.35
138 6 0.05 0.1 0.35
139 5 0.05 0.15 0.3
140 6 0.05 0.15 0.3
141 1 0 0.1 0.4
142 2 0 0.1 0.4
143 3 0.05 0.15 0.45
144 4 0.05 0.15 0.45
145 5 0 0.15 0.45
146 6 0 0.15 0.45
147 5 0.05 0.1 0.45
148 6 0.05 0.1 0.45
149 5 0.05 0.15 0.4
150 6 0.05 0.15 0.4
201 1 0 0.2 0
202 2 0 0.2 0
203 3 0.05 0.25 0.05
204 4 0.05 0.25 0.05
205 5 -2.71051e-20 0.25 0.05
206 6 -2.71051e-20 0.25 0.05
207 5 0.05 0.2 0.05
208 6 0.05 0.2 0.05
209 5 0.05 0.25 0
210 6 0.05 0.25 0
211 1 -5.42101e-20 0.2 0.1
212 2 -5.42101e-20 0.2 0.1
213 3 0.05 0.25 0.15
214 4 0.05 0.25 0.15
215 5 -1.0842e-19 0.25 0.15
216 6 -1.0842e-19 0.25 0.15
217 5 0.05 0.2 0.15
218 6 0.05 0.2 0.15
219 5 0.05 0.25 0.1
220 6 0.05 0.25 0.1
221 1 2.1684e-19 0.2 0.2
222 2 2.1684e-19 0.2 0.2
223 3 0.05 0.25 0.25
224 4 0.05 0.25 0.25
225 5 -1.0842e-19 0.25 0.25
226 6 -1.0842e-19 0.25 0.25
227 5 0.05 0.2 0.25
228 6 0.05 0.2 0.25
229 5 0.05 0.25 0.2
230 6 0.05 0.25 0.2
231 1 2.1684e-19 0.2 0.3
232 2 2.1684e-19 0.2 0.3
233 3 0.05 0.25 0.35
234 4 0.05 0.25 0.35
235 5 0 0.25 0.35
236 6 0 0.25 0.35
237 5 0.05 0.2 0.35
238 6 0.05 0.2 0.35
239 5 0.05 0.25 0.3
240 6 0.05 0.25 0.3
241 1 2.1684e-19 0.2 0.4
242 2 2.1684e-19 0.2 0.4
243 3 0.05 0.25 0.45
244 4 0.05 0.25 0.45
245 5 -2.1684e-19 0.25 0.45
246 6 -2.1684e-19 0.25 0.45
247 5 0.05 0.2 0.45
248 6 0.05 0.2 0.45
249 5 0.05 0.25 0.4
250 6 0.05 0.25 0.4
301 1 0 0.3 0
302 2 0 0.3 0
303 3 0.05 0.35 0.05
304 4 0.05 0.35 0.05
305 5 -1.35525e-19 0.35 0.05
306 6 -1.35525e-19 0.35 0.05
307 5 0.05 0.3 0.05
308 6 0.05 0.3 0.05
309 5 0.05 0.35 0
310 6 0.05 0.35 0
311 1 1.6263e-19 0.3 0.1
312 2 1.6263e-19 0.3 0.1
313 3 0.05 0.35 0.15
314 4 0.05 0.35 0.15
315 5 -1.0842e-19 0.35 0.15
316 6 -1.0842e-19 0.35 0.15
317 5 0.05 0.3 0.15
318 6 0.05 0.3 0.15
319 5 0.05 0.35 0.1
320 6 0.05 0.35 0.1
321 1 1.0842e-19 0.3 0.2
322 2 1.0842e-19 0.3 0.2
323 3 0.05 0.35 0.25
324 4 0.05 0.35 0.25
325 5 -1.0842e-19 0.35 0.25
326 6 -1.0842e-19 0.35 0.25
327 5 0.05 0.3 0.25
328 6 0.05 0.3 0.25
329 5 0.05 0.35 0.2
330 6 0.05 0.35 0.2
331 1 4.33681e-19 0.3 0.3
332 2 4.33681e-19 0.3 0.3
333 3 0.05 0.35 0.35
334 4 0.05 0.35 0.35
335 5 0 0.35 0.35
336 6 0 0.35 0.35
337 5 0.05 0.3 0.35
338 6 0.05 0.3 0.35
339 5 0.05 0.35 0.3
340 6 0.05 0.35 0.3
341 1 0 0.3 0.4
342 2 0 0.3 0.4
343 3 0.05 0.35 0.45
344 4 0.05 0.35 0.45
345 5 -2.1684e-19 0.35 0.45
346 6 -2.1684e-19 0.35 0.45
347 5 0.05 0.3 0.45
348 6 0.05 0.3 0.45
349 5 0.05 0.35 0.4
350 6 0.05 0.35 0.4
401 1 0 0.4 0
402 2 0 0.4 0
403 3 0.05 0.45 0.05
404 4 0.05 0.45 0.05
405 5 -3.52366e-19 0.45 0.05
406 6 -3.52366e-19 0.45 0.05
407 5 0.05 0.4 0.05
408 6 0.05 0.4 0.05
409 5 0.05 0.45 0
410 6 0.05 0.45 0
411 1 -2.71051e-19 0.4 0.1
412 2 -2.71051e-19 0.4 0.1
413 3 0.05 0.45 0.15
414 4 0.05 0.45 0.15
415 5 1.0842e-19 0.45 0.15
416 6 1.0842e-19 0.45 0.15
417 5 0.05 0.4 0.15
418 6 0.05 0.4 0.15
419 5 0.05 0.45 0.1
420 6 0.05 0.45 0.1
421 1 -1.0842e-19 0.4 0.2
422 2 -1.0842e-19 0.4 0.2
423 3 0.05 0.45 0.25
424 4 0.05 0.45 0.25
425 5 -1.0842e-19 0.45 0.25
426 6 -1.0842e-19 0.45 0.25
427 5 0.05 0.4 0.25
428 6 0.05 0.4 0.25
429 5 0.05 0.45 0.2
430 6 0.05 0.45 0.2
431 1 0 0.4 0.3
432 2 0 0.4 0.3
433 3 0.05 0.45 0.35
434 4 0.05 0.45 0.35
435 5 4.33681e-19 0.45 0.35
436 6 4.33681e-19 0.45 0.35
437 5 0.05 0.4 0.35
438 6 0.05 0.4 0.35
439 5 0.05 0.45 0.3
440 6 0.05 0.45 0.3
441 1 4.33681e-19 0.4 0.4
442 2 4.33681e-19 0.4 0.4
443 3 0.05 0.45 0.45
444 4 0.05 0.45 0.45
445 5 0 0.45 0.45
446 6 0 0.45 0.45
447 5 0.05 0.4 0.45
448 6 0.05 0.4 0.45
449 5 0.05 0.45 0.4
450 6 0.05 0.45 0.4
1001 1 0.1 0 0
1002 2 0.1 0 0
1003 3 0.15 0.05 0.05
1004 4 0.15 0.05 0.05
1005 5 0.1 0.05 0.05
1006 6 0.1 0.05 0.05
1007 5 0.15 0 0.05
1008 6 0.15 0 0.05
1009 5 0.15 0.05 0
1010 6 0.15 0.05 0
1011 1 0.1 0 0.1
1012 2 0.1 0 0.1
1013 3 0.15 0.05 0.15
1014 4 0.15 0.05 0.15
1015 5 0.1 0.05 0.15
1016 6 0.1 0.05 0.15
1017 5 0.15 0 0.15
1018 6 0.15 0 0.15
1019 5 0.15 0.05 0.1
1020 6 0.15 0.05 0.1
1021 1 0.1 0 0.2
1022 2 0.1 0 0.2
1023 3 0.15 0.05 0.25
1024 4 0.15 0.05 0.25
1025 5 0.1 0.05 0.25
1026 6 0.1 0.05 0.25
1027 5 0.15 0 0.25
1028 6 0.15 0 0.25
1029 5 0.15 0.05 0.2
1030 6 0.15 0.05 0.2
1031 1 0.1 0 0.3
1032 2 0.1 0 0.3
1033 3 0.15 0.05 0.35
1034 4 0.15 0.05 0.35
1035 5 0.1 0.05 0.35
1036 6 0.1 0.05 0.35
1037 5 0.15 0 0.35
1038 6 0.15 0 0.35
1039 5 0.15 0.05 0.3
1040 6 0.15 0.05 0.3
1041 1 0.1 0 0.4
1042 2 0.1 0 0.4
1043 3 0.15 0.05 0.45
1044 4 0.15 0.05 0.45
1045 5 0.1 0.05 0.45
1046 6 0.1 0.05 0.45
1047 5 0.15 0 0.45
1048 6 0.15 0 0.45
1049 5 0.15 0.05 0.4
1050 6 0.15 0.05 0.4
1101 1 0.1 0.1 0
1102 2 0.1 0.1 0
1103 3 0.15 0.15 0.05
1104 4 0.15 0.15 0.05
1105 5 0.1 0.15 0.05
1106 6 0.1 0.15 0.05
1107 5 0.15 0.1 0.05
1108 6 0.15 0.1 0.05
1109 5 0.15 0.15 0
1110 6 0.15 0.15 0
1111 1 0.1 0.1 0.1
1112 2 0.1 0.1 0.1
1113 3 0.15 0.15 0.15
1114 4 0.15 0.15 0.15
1115 5 0.1 0.15 0.15
1116 6 0.1 0.15 0.15
1117 5 0.15 0.1 0.15
1118 6 0.15 0.1 0.15
1119 5 0.15 0.15 0.1
1120 6 0.15 0.15 0.1
1121 1 0.1 0.1 0.2
1122 2 0.1 0.1 0.2
1123 3 0.15 0.15 0.25
1124 4 0.15 0.15 0.25
1125 5 0.1 0.15 0.25
1126 6 0.1 0.15 0.25
1127 5 0.15 0.1 0.25
1128 6 0.15 0.1 0.25
1129 5 0.15 0.15 0.2
1130 6 0.15 0.15 0.2
1131 1 0.1 0.1 0.3
1132 2 0.1 0.1 0.3
1133 3 0.15 0.15 0.35
1134 4 0.15 0.15 0.35
1135 5 0.1 0.15 0.35
1136 6 0.1 0.15 0.35
1137 5 0.15 0.1 0.35
1138 6 0.15 0.1 0.35
1139 5 0.15 0.15 0.3
1140 6 0.15 0.15 0.3
1141 1 0.1 0.1 0.4
1142 2 0.1 0.1 0.4
1143 3 0.15 0.15 0.45
1144 4 0.15 0.15 0.45
1145 5 0.1 0.15 0.45
1146 6 0.1 0.15 0.45
1147 5 0.15 0.1 0.45
1148 6 0.15 0.1 0.45
1149 5 0.15 0.15 0.4
1150 6 0.15 0.15 0.4
1201 1 0.1 0.2 0
1202 2 0.1 0.2 0
1203 3 0.15 0.25 0.05
1204 4 0.15 0.25 0.05
1205 5 0.1 0.25 0.05
1206 6 0.1 0.25 0.05
1207 5 0.15 0.2 0.05
1208 6 0.15 0.2 0.05
1209 5 0.15 0.25 0
1210 6 0.15 0.25 0
1211 1 0.1 0.2 0.1
1212 2 0.1 0.2 0.1
1213 3 0.15 0.25 0.15
1214 4 0.15 0.25 0.15
1215 5 0.1 0.25 0.15
1216 6 0.1 0.25 0.15
1217 5 0.15 0.2 0.15
1218 6 0.15 0.2 0.15
1219 5 0.15 0.25 0.1
1220 6 0.15 0.25 0.1
1221 1 0.1 0.2 0.2
1222 2 0.1 0.2 0.2
1223 3 0.15 0.25 0.25
1224 4 0.15 0.25 0.25
1225 5 0.1 0.25 0.25
1226 6 0.1 0.25 0.25
1227 5 0.15 0.2 0.25
1228 6 0.15 0.2 0.25
1229 5 0.15 0.25 0.2
1230 6 0.15 0.25 0.2
1231 1 0.1 0.2 0.3
1232 2 0.1 0.2 0.3
1233 3 0.15 0.25 0.35
1234 4 0.15 0.25 0.35
1235 5 0.1 0.25 0.35
1236 6 0.1 0.25 0.35
1237 5 0.15 0.2 0.35
1238 6 0.15 0.2 0.35
1239 5 0.15 0.25 0.3
1240 6 0.15 0.25 0.3
1241 1 0.1 0.2 0.4
1242 2 0.1 0.2 0.4
1243 3 0.15 0.25 0.45
1244 4 0.15 0.25 0.45
1245 5 0.1 0.25 0.45
1246 6 0.1 0.25 0.45
1247 5 0.15 0.2 0.45
1248 6 0.15 0.2 0.45
1249 5 0.15 0.25 0.4
1250 6 0.15 0.25 0.4
1301 1 0.1 0.3 0
1302 2 0.1 0.3 0
1303 3 0.15 0.35 0.05
1304 4 0.15 0.35 0.05
1305 5 0.1 0.35 0.05
1306 6 0.1 0.35 0.05
1307 5 0.15 0.3 0.05
1308 6 0.15 0.3 0.05
1309 5 0.15 0.35 0
1310 6 0.15 0.35 0
1311 1 0.1 0.3 0.1
1312 2 0.1 0.3 0.1
1313 3 0.15 0.35 0.15
1314 4 0.15 0.35 0.15
1315 5 0.1 0.35 0.15
1316 6 0.1 0.35 0.15
1317 5 0.15 0.3 0.15
1318 6 0.15 0.3 0.15
1319 5 0.15 0.35 0.1
1320 6 0.15 0.35 0.1
1321 1 0.1 0.3 0.2
1322 2 0.1 0.3 0.2
1323 3 0.15 0.35 0.25
1324 4 0.15 0.35 0.25
1325 5 0.1 0.35 0.25
1326 6 0.1 0.35 0.25
1327 5 0.15 0.3 0.25
1328 6 0.15 0.3 0.25
1329 5 0.15 0.35 0.2
1330 6 0.15 0.35 0.2
1331 1 0.1 0.3 0.3
1332 2 0.1 0.3 0.3
1333 3 0.15 0.35 0.35
1334 4 0.15 0.35 0.35
1335 5 0.1 0.35 0.35
1336 6 0.1 0.35 0.35
1337 5 0.15 0.3 0.35
1338 6 0.15 0.3 0.35
1339 5 0.15 0.35 0.3
1340 6 0.15 0.35 0.3
1341 1 0.1 0.3 0.4
1342 2 0.1 0.3 0.4
1343 3 0.15 0.35 0.45
1344 4 0.15 0.35 0.45
1345 5 0.1 0.35 0.45
1346 6 0.1 0.35 0.45
1347 5 0.15 0.3 0.45
1348 6 0.15 0.3 0.45
1349 5 0.15 0.35 0.4
1350 6 0.15 0.35 0.4
1401 1 0.1 0.4 0
1402 2 0.1 0.4 0
1403 3 0.15 0.45 0.05
1404 4 0.15 0.45 0.05
1405 5 0.1 0.45 0.05
1406 6 0.1 0.45 0.05
1407 5 0.15 0.4 0.05
1408 6 0.15 0.4 0.05
1409 5 0.15 0.45 0
1410 6 0.15 0.45 0
1411 1 0.1 0.4 0.1
1412 2 0.1 0.4 0.1
1413 3 0.15 0.45 0.15
1414 4 0.15 0.45 0.15
1415 5 0.1 0.45 0.15
1416 6 0.1 0.45 0.15
1417 5 0.15 0.4 0.15
1418 6 0.15 0.4 0.15
1419 5 0.15 0.45 0.1
1420 6 0.15 0.45 0.1
1421 1 0.1 0.4 0.2
1422 2 0.1 0.4 0.2
1423 3 0.15 0.45 0.25
1424 4 0.15 0.45 0.25
1425 5 0.1 0.45 0.25
1426 6 0.1 0.45 0.25
1427 5 0.15 0.4 0.25
1428 6 0.15 0.4 0.25
1429 5 0.15 0.45 0.2
1430 6 0.15 0.45 0.2
1431 1 0.1 0.4 0.3
1432 2 0.1 0.4 0.3
1433 3 0.15 0.45 0.35
1434 4 0.15 0.45 0.35
1435 5 0.1 0.45 0.35
1436 6 0.1 0.45 0.35
1437 5 0.15 0.4 0.35
1438 6 0.15 0.4 0.35
1439 5 0.15 0.45 0.3
1440 6 0.15 0.45 0.3
1441 1 0.1 0.4 0.4
1442 2 0.1 0.4 0.4
1443 3 0.15 0.45 0.45
1444 4 0.15 0.45 0.45
1445 5 0.1 0.45 0.45
1446 6 0.1 0.45 0.45
1447 5 0.15 0.4 0.45
1448 6 0.15 0.4 0.45
1449 5 0.15 0.45 0.4
1450 6 0.15 0.45 0.4
2001 1 0.2 0 0
2002 2 0.2 0 0
2003 3 0.25 0.05 0.05
2004 4 0.25 0.05 0.05
2005 5 0.2 0.05 0.05
2006 6 0.2 0.05 0.05
2007 5 0.25 0 0.05
2008 6 0.25 0 0.05
2009 5 0.25 0.05 0
2010 6 0.25 0.05 0
2011 1 0.2 0 0.1
2012 2 0.2 0 0.1
2013 3 0.25 0.05 0.15
2014 4 0.25 0.05 0.15
2015 5 0.2 0.05 0.15
2016 6 0.2 0.05 0.15
2017 5 0.25 0 0.15
2018 6 0.25 0 0.15
2019 5 0.25 0.05 0.1
2020 6 0.25 0.05 0.1
2021 1 0.2 0 0.2
2022 2 0.2 0 0.2
2023 3 0.25 0.05 0.25
2024 4 0.25 0.05 0.25
2025 5 0.2 0.05 0.25
2026 6 0.2 0.05 0.25
2027 5 0.25 0 0.25
2028 6 0.25 0 0.25
2029 5 0.25 0.05 0.2
2030 6 0.25 0.05 0.2
2031 1 0.2 0 0.3
2032 2 0.2 0 0.3
2033 3 0.25 0.05 0.35
2034 4 0.25 0.05 0.35
2035 5 0.2 0.05 0.35
2036 6 0.2 0.05 0.35
2037 5 0.25 0 0.35
2038 6 0.25 0 0.35
2039 5 0.25 0.05 0.3
2040 6 0.25 0.05 0.3
2041 1 0.2 0 0.4
2042 2 0.2 0 0.4
2043 3 0.25 0.05 0.45
2044 4 0.25 0.05 0.45
2045 5 0.2 0.05 0.45
2046 6 0.2 0.05 0.45
2047 5 0.25 0 0.45
2048 6 0.25 0 0.45
2049 5 0.25 0.05 0.4
2050 6 0.25 0.05 0.4
2101 1 0.2 0.1 0
2102 2 0.2 0.1 0
2103 3 0.25 0.15 0.05
2104 4 0.25 0.15 0.05
2105 5 0.2 0.15 0.05
2106 6 0.2 0.15 0.05
2107 5 0.25 0.1 0.05
2108 6 0.25 0.1 0.05
2109 5 0.25 0.15 0
2110 6 0.25 0.15 0
2111 1 0.2 0.1 0.1
2112 2 0.2 0.1 0.1
2113 3 0.25 0.15 0.15
2114 4 0.25 0.15 0.15
2115 5 0.2 0.15 0.15
2116 6 0.2 0.15 0.15
2117 5 0.25 0.1 0.15
2118 6 0.25 0.1 0.15
2119 5 0.25 0.15 0.1
2120 6 0.25 0.15 0.1
2121 1 0.2 0.1 0.2
2122 2 0.2 0.1 0.2
2123 3 0.25 0.15 0.25
2124 4 0.25 0.15 0.25
2125 5 0.2 0.15 0.25
2126 6 0.2 0.15 0.25
2127 5 0.25 0.1 0.25
2128 6 0.25 0.1 0.25
2129 5 0.25 0.15 0.2
2130 6 0.25 0.15 0.2
2131 1 0.2 0.1 0.3
2132 2 0.2 0.1 0.3
2133 3 0.25 0.15 0.35
2134 4 0.25 0.15 0.35
2135 5 0.2 0.15 0.35
2136 6 0.2 0.15 0.35
2137 5 0.25 0.1 0.35
2138 6 0.25 0.1 0.35
2139 5 0.25 0.15 0.3
2140 6 0.25 0.15 0.3
2141 1 0.2 0.1 0.4
2142 2 0.2 0.1 0.4
2143 3 0.25 0.15 0.45
2144 4 0.25 0.15 0.45
2145 5 0.2 0.15 0.45
2146 6 0.2 0.15 0.45
2147 5 0.25 0.1 0.45
2148 6 0.25 0.1 0.45
2149 5 0.25 0.15 0.4
2150 6 0.25 0.15 0.4
2201 1 0.2 0.2 0
2202 2 0.2 0.2 0
2203 3 0.25 0.25 0.05
2204 4 0.25 0.25 0.05
2205 5 0.2 0.25 0.05
2206 6 0.2 0.25 0.05
2207 5 0.25 0.2 0.05
2208 6 0.25 0.2 0.05
2209 5 0.25 0.25 0
2210 6 0.25 0.25 0
2211 1 0.2 0.2 0.1
2212 2 0.2 0.2 0.1
2213 3 0.25 0.25 0.15
2214 4 0.25 0.25 0.15
2215 5 0.2 0.25 0.15
2216 6 0.2 0.25 0.15
2217 5 0.25 0.2 0.15
2218 6 0.25 0.2 0.15
2219 5 0.25 0.25 0.1
2220 6 0.25 0.25 0.1
2221 1 0.2 0.2 0.2
2222 2 0.2 0.2 0.2
2223 3 0.25 0.25 0.25
2224 4 0.25 0.25 0.25
2225 5 0.2 0.25 0.25
2226 6 0.2 0.25 0.25
2227 5 0.25 0.2 0.25
2228 6 0.25 0.2 0.25
2229 5 0.25 0.25 0.2
2230 6 0.25 0.25 0.2
2231 1 0.2 0.2 0.3
2232 2 0.2 0.2 0.3
2233 3 0.25 0.25 0.35
2234 4 0.25 0.25 0.35
2235 5 0.2 0.25 0.35
2236 6 0.2 0.25 0.35
2237 5 0.25 0.2 0.35
2238 6 0.25 0.2 0.35
2239 5 0.25 0.25 0.3
2240 6 0.25 0.25 0.3
2241 1 0.2 0.2 0.4
2242 2 0.2 0.2 0.4
2243 3 0.25 0.25 0.45
2244 4 0.25 0.25 0.45
2245 5 0.2 0.25 0.45
2246 6 0.2 0.25 0.45
2247 5 0.25 0.2 0.45
2248 6 0.25 0.2 0.45
2249 5 0.25 0.25 0.4
2250 6 0.25 0.25 0.4
2301 1 0.2 0.3 0
2302 2 0.2 0.3 0
2303 3 0.25 0.35 0.05
2304 4 0.25 0.35 0.05
2305 5 0.2 0.35 0.05
2306 6 0.2 0.35 0.05
2307 5 0.25 0.3 0.05
2308 6 0.25 0.3 0.05
2309 5 0.25 0.35 0
2310 6 0.25 0.35 0
2311 1 0.2 0.3 0.1
2312 2 0.2 0.3 0.1
2313 3 0.25 0.35 0.15
2314 4 0.25 0.35 0.15
2315 5 0.2 0.35 0.15
2316 6 0.2 0.35 0.15
2317 5 0.25 0.3 0.15
2318 6 0.25 0.3 0.15
2319 5 0.25 0.35 0.1
2320 6 0.25 0.35 0.1
2321 1 0.2 0.3 0.2
2322 2 0.2 0.3 0.2
2323 3 0.25 0.35 0.25
2324 4 0.25 0.35 0.25
2325 5 0.2 0.35 0.25
2326 6 0.2 0.35 0.25
2327 5 0.25 0.3 0.25
2328 6 0.25 0.3 0.25
2329 5 0.25 0.35 0.2
2330 6 0.25 0.35 0.2
2331 1 0.2 0.3 0.3
2332 2 0.2 0.3 0.3
2333 3 0.25 0.35 0.35
2334 4 0.25 0.35 0.35
2335 5 0.2 0.35 0.35
2336 6 0.2 0.35 0.35
2337 5 0.25 0.3 0.35
2338 6 0.25 0.3 0.35
2339 5 0.25 0.35 0.3
2340 6 0.25 0.35 0.3
2341 1 0.2 0.3 0.4
2342 2 0.2 0.3 0.4
2343 3 0.25 0.35 0.45
2344 4 0.25 0.35 0.45
2345 5 0.2 0.35 0.45
2346 6 0.2 0.35 0.45
2347 5 0.25 0.3 0.45
2348 6 0.25 0.3 0.45
2349 5 0.25 0.35 0.4
2350 6 0.25 0.35 0.4
2401 1 0.2 0.4 0
2402 2 0.2 0.4 0
2403 3 0.25 0.45 0.05
2404 4 0.25 0.45 0.05
2405 5 0.2 0.45 0.05
2406 6 0.2 0.45 0.05
2407 5 0.25 0.4 0.05
2408 6 0.25 0.4 0.05
2409 5 0.25 0.45 0
2410 6 0.25 0.45 0
2411 1 0.2 0.4 0.1
2412 2 0.2 0.4 0.1
2413 3 0.25 0.45 0.15
2414 4 0.25 0.45 0.15
2415 5 0.2 0.45 0.15
2416 6 0.2 0.45 0.15
2417 5 0.25 0.4 0.15
2418 6 0.25 0.4 0.15
2419 5 0.25 0.45 0.1
2420 6 0.25 0.45 0.1
2421 1 0.2 0.4 0.2
2422 2 0.2 0.4 0.2
2423 3 0.25 0.45 0.25
2424 4 0.25 0.45 0.25
2425 5 0.2 0.45 0.25
2426 6 0.2 0.45 0.25
2427 5 0.25 0.4 0.25
2428 6 0.25 0.4 0.25
2429 5 0.25 0.45 0.2
2430 6 0.25 0.45 0.2
2431 1 0.2 0.4 0.3
2432 2 0.2 0.4 0.3
2433 3 0.25 0.45 0.35
2434 4 0.25 0.45 0.35
2435 5 0.2 0.45 0.35
2436 6 0.2 0.45 0.35
2437 5 0.25 0.4 0.35
2438 6 0.25 0.4 0.35
2439 5 0.25 0.45 0.3
2440 6 0.25 0.45 0.3
2441 1 0.2 0.4 0.4
2442 2 0.2 0.4 0.4
2443 3 0.25 0.45 0.45
2444 4 0.25 0.45 0.45
2445 5 0.2 0.45 0.45
2446 6 0.2 0.45 0.45
2447 5 0.25 0.4 0.45
2448 6 0.25 0.4 0.45
2449 5 0.25 0.45 0.4
2450 6 0.25 0.45 0.4
3001 1 0.3 0 0
3002 2 0.3 0 0
3003 3 0.35 0.05 0.05
3004 4 0.35 0.05 0.05
3005 5 0.3 0.05 0.05
3006 6 0.3 0.05 0.05
3007 5 0.35 0 0.05
3008 6 0.35 0 0.05
3009 5 0.35 0.05 0
3010 6 0.35 0.05 0
3011 1 0.3 0 0.1
3012 2 0.3 0 0.1
3013 3 0.35 0.05 0.15
3014 4 0.35 0.05 0.15
3015 5 0.3 0.05 0.15
3016 6 0.3 0.05 0.15
3017 5 0.35 0 0.15
3018 6 0.35 0 0.15
3019 5 0.35 0.05 0.1
3020 6 0.35 0.05 0.1
3021 1 0.3 0 0.2
3022 2 0.3 0 0.2
3023 3 0.35 0.05 0.25
3024 4 0.35 0.05 0.25
3025 5 0.3 0.05 0.25
3026 6 0.3 0.05 0.25
3027 5 0.35 0 0.25
3028 6 0.35 0 0.25
3029 5 0.35 0.05 0.2
3030 6 0.35 0.05 0.2
3031 1 0.3 0 0.3
3032 2 0.3 0 0.3
3033 3 0.35 0.05 0.35
3034 4 0.35 0.05 0.35
3035 5 0.3 0.05 0.35
3036 6 0.3 0.05 0.35
3037 5 0.35 0 0.35
3038 6 0.35 0 0.35
3039 5 0.35 0.05 0.3
3040 6 0.35 0.05 0.3
3041 1 0.3 0 0.4
3042 2 0.3 0 0.4
3043 3 0.35 0.05 0.45
3044 4 0.35 0.05 0.45
3045 5 0.3 0.05 0.45
3046 6 0.3 0.05 0.45
3047 5 0.35 0 0.45
3048 6 0.35 0 0.45
3049 5 0.35 0.05 0.4
3050 6 0.35 0.05 0.4
3101 1 0.3 0.1 0
3102 2 0.3 0.1 0
3103 3 0.35 0.15 0.05
3104 4 0.35 0.15 0.05
3105 5 0.3 0.15 0.05
3106 6 0.3 0.15 0.05
3107 5 0.35 0.1 0.05
3108 6 0.35 0.1 0.05
3109 5 0.35 0.15 0
3110 6 0.35 0.15 0
3111 1 0.3 0.1 0.1
3112 2 0.3 0.1 0.1
3113 3 0.35 0.15 0.15
3114 4 0.35 0.15 0.15
3115 5 0.3 0.15 0.15
3116 6 0.3 0.15 0.15
3117 5 0.35 0.1 0.15
3118 6 0.35 0.1 0.15
3119 5 0.35 0.15 0.1
3120 6 0.35 0.15 0.1
3121 1 0.3 0.1 0.2
3122 2 0.3 0.1 0.2
3123 3 0.35 0.15 0.25
3124 4 0.35 0.15 0.25
3125 5 0.3 0.15 0.25
3126 6 0.3 0.15 0.25
3127 5 0.35 0.1 0.25
3128 6 0.35 0.1 0.25
3129 5 0.35 0.15 0.2
3130 6 0.35 0.15 0.2
3131 1 0.3 0.1 0.3
3132 2 0.3 0.1 0.3
3133 3 0.35 0.15 0.35
3134 4 0.35 0.15 0.35
3135 5 0.3 0.15 0.35
3136 6 0.3 0.15 0.35
3137 5 0.35 0.1 0.35
3138 6 0.35 0.1 0.35
3139 5 0.35 0.15 0.3
3140 6 0.35 0.15 0.3
3141 1 0.3 0.1 0.4
3142 2 0.3 0.1 0.4
3143 3 0.35 0.15 0.45
3144 4 0.35 0.15 0.45
3145 5 0.3 0.15 0.45
3146 6 0.3 0.15 0.45
3147 5 0.35 0.1 0.45
3148 6 0.35 0.1 0.45
3149 5 0.35 0.15 0.4
3150 6 0.35 0.15 0.4
3201 1 0.3 0.2 0
3202 2 0.3 0.2 0
3203 3 0.35 0.25 0.05
3204 4 0.35 0.25 0.05
3205 5 0.3 0.25 0.05
3206 6 0.3 0.25 0.05
3207 5 0.35 0.2 0.05
3208 6 0.35 0.2 0.05
3209 5 0.35 0.25 0
3210 6 0.35 0.25 0
3211 1 0.3 0.2 0.1
3212 2 0.3 0.2 0.1
3213 3 0.35 0.25 0.15
3214 4 0.35 0.25 0.15
3215 5 0.3 0.25 0.15
3216 6 0.3 0.25 0.15
3217 5 0.35 0.2 0.15
3218 6 0.35 0.2 0.15
3219 5 0.35 0.25 0.1
3220 6 0.35 0.25 0.1
3221 1 0.3 0.2 0.2
3222 2 0.3 0.2 0.2
3223 3 0.35 0.25 0.25
3224 4 0.35 0.25 0.25
3225 5 0.3 0.25 0.25
3226 6 0.3 0.25 0.25
3227 5 0.35 0.2 0.25
3228 6 0.35 0.2 0.25
3229 5 0.35 0.25 0.2
3230 6 0.35 0.25 0.2
3231 1 0.3 0.2 0.3
3232 2 0.3 0.2 0.3
3233 3 0.35 0.25 0.35
3234 4 0.35 0.25 0.35
3235 5 0.3 0.25 0.35
3236 6 0.3 0.25 0.35
3237 5 0.35 0.2 0.35
3238 6 0.35 0.2 0.35
3239 5 0.35 0.25 0.3
3240 6 0.35 0.25 0.3
3241 1 0.3 0.2 0.4
3242 2 0.3 0.2 0.4
3243 3 0.35 0.25 0.45
3244 4 0.35 0.25 0.45
3245 5 0.3 0.25 0.45
3246 6 0.3 0.25 0.45
3247 5 0.35 0.2 0.45
3248 6 0.35 0.2 0.45
3249 5 0.35 0.25 0.4
3250 6 0.35 0.25 0.4
3301 1 0.3 0.3 0
3302 2 0.3 0.3 0
3303 3 0.35 0.35 0.05
3304 4 0.35 0.35 0.05
3305 5 0.3 0.35 0.05
3306 6 0.3 0.35 0.05
3307 5 0.35 0.3 0.05
3308 6 0.35 0.3 0.05
3309 5 0.35 0.35 0
3310 6 0.35 0.35 0
3311 1 0.3 0.3 0.1
3312 2 0.3 0.3 0.1
3313 3 0.35 0.35 0.15
3314 4 0.35 0.35 0.15
3315 5 0.3 0.35 0.15
3316 6 0.3 0.35 0.15
3317 5 0.35 0.3 0.15
3318 6 0.35 0.3 0.15
3319 5 0.35 0.35 0.1
3320 6 0.35 0.35 0.1
3321 1 0.3 0.3 0.2
3322 2 0.3 0.3 0.2
3323 3 0.35 0.35 0.25
3324 4 0.35 0.35 0.25
3325 5 0.3 0.35 0.25
3326 6 0.3 0.35 0.25
3327 5 0.35 0.3 0.25
3328 6 0.35 0.3 0.25
3329 5 0.35 0.35 0.2
3330 6 0.35 0.35 0.2
3331 1 0.3 0.3 0.3
3332 2 0.3 0.3 0.3
3333 3 0.35 0.35 0.35
3334 4 0.35 0.35 0.35
3335 5 0.3 0.35 0.35
3336 6 0.3 0.35 0.35
3337 5 0.35 0.3 0.35
3338 6 0.35 0.3 0.35
3339 5 0.35 0.35 0.3
3340 6 0.35 0.35 0.3
3341 1 0.3 0.3 0.4
3342 2 0.3 0.3 0.4
3343 3 0.35 0.35 0.45
3344 4 0.35 0.35 0.45
3345 5 0.3 0.35 0.45
3346 6 0.3 0.35 0.45
3347 5 0.35 0.3 0.45
3348 6 0.35 0.3 0.45
3349 5 0.35 0.35 0.4
3350 6 0.35 0.35 0.4
3401 1 0.3 0.4 0
3402 2 0.3 0.4 0
3403 3 0.35 0.45 0.05
3404 4 0.35 0.45 0.05
3405 5 0.3 0.45 0.05
3406 6 0.3 0.45 0.05
3407 5 0.35 0.4 0.05
3408 6 0.35 0.4 0.05
3409 5 0.35 0.45 0
3410 6 0.35 0.45 0
3411 1 0.3 0.4 0.1
3412 2 0.3 0.4 0.1
3413 3 0.35 0.45 0.15
3414 4 0.35 0.45 0.15
3415 5 0.3 0.45 0.15
3416 6 0.3 0.45 0.15
3417 5 0.35 0.4 0.15
3418 6 0.35 0.4 0.15
3419 5 0.35 0.45 0.1
3420 6 0.35 0.45 0.1
3421 1 0.3 0.4 0.2
3422 2 0.3 0.4 0.2
3423 3 0.35 0.45 0.25
3424 4 0.35 0.45 0.25
3425 5 0.3 0.45 0.25
3426 6 0.3 0.45 0.25
3427 5 0.35 0.4 0.25
3428 6 0.35 0.4 0.25
3429 5 0.35 0.45 0.2
3430 6 0.35 0.45 0.2
3431 1 0.3 0.4 0.3
3432 2 0.3 0.4 0.3
3433 3 0.35 0.45 0.35
3434 4 0.35 0.45 0.35
3435 5 0.3 0.45 0.35
3436 6 0.3 0.45 0.35
3437 5 0.35 0.4 0.35
3438 6 0.35 0.4 0.35
3439 5 0.35 0.45 0.3
3440 6 0.35 0.45 0.3
3441 1 0.3 0.4 0.4
3442 2 0.3 0.4 0.4
3443 3 0.35 0.45 0.45
3444 4 0.35 0.45 0.45
3445 5 0.3 0.45 0.45
3446 6 0.3 0.45 0.45
3447 5 0.35 0.4 0.45
3448 6 0.35 0.4 0.45
3449 5 0.35 0.45 0.4
3450 6 0.35 0.45 0.4
4001 1 0.4 0 0
4002 2 0.4 0 0
4003 3 0.45 0.05 0.05
4004 4 0.45 0.05 0.05
4005 5 0.4 0.05 0.05
4006 6 0.4 0.05 0.05
4007 5 0.45 0 0.05
4008 6 0.45 0 0.05
4009 5 0.45 0.05 0
4010 6 0.45 0.05 0
4011 1 0.4 0 0.1
4012 2 0.4 0 0.1
4013 3 0.45 0.05 0.15
4014 4 0.45 0.05 0.15
4015 5 0.4 0.05 0.15
4016 6 0.4 0.05 0.15
4017 5 0.45 0 0.15
4018 6 0.45 0 0.15
4019 5 0.45 0.05 0.1
4020 6 0.45 0.05 0.1
4021 1 0.4 0 0.2
4022 2 0.4 0 0.2
4023 3 0.45 0.05 0.25
4024 4 0.45 0.05 0.25
4025 5 0.4 0.05 0.25
4026 6 0.4 0.05 0.25
4027 5 0.45 0 0.25
4028 6 0.45 0 0.25
4029 5 0.45 0.05 0.2
4030 6 0.45 0.05 0.2
4031 1 0.4 0 0.3
4032 2 0.4 0 0.3
4033 3 0.45 0.05 0.35
4034 4 0.45 0.05 0.35
4035 5 0.4 0.05 0.35
4036 6 0.4 0.05 0.35
4037 5 0.45 0 0.35
4038 6 0.45 0 0.35
4039 5 0.45 0.05 0.3
4040 6 0.45 0.05 0.3
4041 1 0.4 0 0.4
4042 2 0.4 0 0.4
4043 3 0.45 0.05 0.45
4044 4 0.45 0.05 0.45
4045 5 0.4 0.05 0.45
4046 6 0.4 0.05 0.45
4047 5 0.45 0 0.45
4048 6 0.45 0 0.45
4049 5 0.45 0.05 0.4
4050 6 0.45 0.05 0.4
4101 1 0.4 0.1 0
4102 2 0.4 0.1 0
4103 3 0.45 0.15 0.05
4104 4 0.45 0.15 0.05
4105 5 0.4 0.15 0.05
4106 6 0.4 0.15 0.05
4107 5 0.45 0.1 0.05
4108 6 0.45 0.1 0.05
4109 5 0.45 0.15 0
4110 6 0.45 0.15 0
4111 1 0.4 0.1 0.1
4112 2 0.4 0.1 0.1
4113 3 0.45 0.15 0.15
4114 4 0.45 0.15 0.15
4115 5 0.4 0.15 0.15
4116 6 0.4 0.15 0.15
4117 5 0.45 0.1 0.15
4118 6 0.45 0.1 0.15
4119 5 0.45 0.15 0.1
4120 6 0.45 0.15 0.1
4121 1 0.4 0.1 0.2
4122 2 0.4 0.1 0.2
4123 3 0.45 0.15 0.25
4124 4 0.45 0.15 0.25
4125 5 0.4 0.15 0.25
4126 6 0.4 0.15 0.25
4127 5 0.45 0.1 0.25
4128 6 0.45 0.1 0.25
4129 5 0.45 0.15 0.2
4130 6 0.45 0.15 0.2
4131 1 0.4 0.1 0.3
4132 2 0.4 0.1 0.3
4133 3 0.45 0.15 0.35
4134 4 0.45 0.15 0.35
4135 5 0.4 0.15 0.35
4136 6 0.4 0.15 0.35
4137 5 0.45 0.1 0.35
4138 6 0.45 0.1 0.35
4139 5 0.45 0.15 0.3
4140 6 0.45 0.15 0.3
4141 1 0.4 0.1 0.4
4142 2 0.4 0.1 0.4
4143 3 0.45 0.15 0.45
4144 4 0.45 0.15 0.45
4145 5 0.4 0.15 0.45
4146 6 0.4 0.15 0.45
4147 5 0.45 0.1 0.45
4148 6 0.45 0.1 0.45
4149 5 0.45 0.15 0.4
4150 6 0.45 0.15 0.4
4201 1 0.4 0.2 0
4202 2 0.4 0.2 0
4203 3 0.45 0.25 0.05
4204 4 0.45 0.25 0.05
4205 5 0.4 0.25 0.05
4206 6 0.4 0.25 0.05
4207 5 0.45 0.2 0.05
4208 6 0.45 0.2 0.05
4209 5 0.45 0.25 0
4210 6 0.45 0.25 0
4211 1 0.4 0.2 0.1
4212 2 0.4 0.2 0.1
4213 3 0.45 0.25 0.15
4214 4 0.45 0.25 0.15
4215 5 0.4 0.25 0.15
4216 6 0.4 0.25 0.15
4217 5 0.45 0.2 0.15
4218 6 0.45 0.2 0.15
4219 5 0.45 0.25 0.1
4220 6 0.45 0.25 0.1
4221 1 0.4 0.2 0.2
4222 2 0.4 0.2 0.2
4223 3 0.45 0.25 0.25
4224 4 0.45 0.25 0.25
4225 5 0.4 0.25 0.25
4226 6 0.4 0.25 0.25
4227 5 0.45 0.2 0.25
4228 6 0.45 0.2 0.25
4229 5 0.45 0.25 0.2
4230 6 0.45 0.25 0.2
4231 1 0.4 0.2 0.3
4232 2 0.4 0.2 0.3
4233 3 0.45 0.25 0.35
4234 4 0.45 0.25 0.35
4235 5 0.4 0.25 0.35
4236 6 0.4 0.25 0.35
4237 5 0.45 0.2 0.35
4238 6 0.45 0.2 0.35
4239 5 0.45 0.25 0.3
4240 6 0.45 0.25 0.3
4241 1 0.4 0.2 0.4
4242 2 0.4 0.2 0.4
4243 3 0.45 0.25 0.45
4244 4 0.45 0.25 0.45
4245 5 0.4 0.25 0.45
4246 6 0.4 0.25 0.45
4247 5 0.45 0.2 0.45
4248 6 0.45 0.2 0.45
4249 5 0.45 0.25 0.4
4250 6 0.45 0.25 0.4
4301 1 0.4 0.3 0
4302 2 0.4 0.3 0
4303 3 0.45 0.35 0.05
4304 4 0.45 0.35 0.05
4305 5 0.4 0.35 0.05
4306 6 0.4 0.35 0.05
4307 5 0.45 0.3 0.05
4308 6 0.45 0.3 0.05
4309 5 0.45 0.35 0
4310 6 0.45 0.35 0
4311 1 0.4 0.3 0.1
4312 2 0.4 0.3 0.1
4313 3 0.45 0.35 0.15
4314 4 0.45 0.35 0.15
4315 5 0.4 0.35 0.15
4316 6 0.4 0.35 0.15
4317 5 0.45 0.3 0.15
4318 6 0.45 0.3 0.15
4319 5 0.45 0.35 0.1
4320 6 0.45 0.35 0.1
4321 1 0.4 0.3 0.2
4322 2 0.4 0.3 0.2
4323 3 0.45 0.35 0.25
4324 4 0.45 0.35 0.25
4325 5 0.4 0.35 0.25
4326 6 0.4 0.35 0.25
4327 5 0.45 0.3 0.25
4328 6 0.45 0.3 0.25
4329 5 0.45 0.35 0.2
4330 6 0.45 0.35 0.2
4331 1 0.4 0.3 0.3
4332 2 0.4 0.3 0.3
4333 3 0.45 0.35 0.35
4334 4 0.45 0.35 0.35
4335 5 0.4 0.35 0.35
4336 6 0.4 0.35 0.35
4337 5 0.45 0.3 0.35
4338 6 0.45 0.3 0.35
4339 5 0.45 0.35 0.3
4340 6 0.45 0.35 0.3
4341 1 0.4 0.3 0.4
4342 2 0.4 0.3 0.4
4343 3 0.45 0.35 0.45
4344 4 0.45 0.35 0.45
4345 5 0.4 0.35 0.45
4346 6 0.4 0.35 0.45
4347 5 0.45 0.3 0.45
4348 6 0.45 0.3 0.45
4349 5 0.45 0.35 0.4
4350 6 0.45 0.35 0.4
4401 1 0.4 0.4 0
4402 2 0.4 0.4 0
4403 3 0.45 0.45 0.05
4404 4 0.45 0.45 0.05
4405 5 0.4 0.45 0.05
4406 6 0.4 0.45 0.05
4407 5 0.45 0.4 0.05
4408 6 0.45 0.4 0.05
4409 5 0.45 0.45 0
4410 6 0.45 0.45 0
4411 1 0.4 0.4 0.1
4412 2 0.4 0.4 0.1
4413 3 0.45 0.45 0.15
4414 4 0.45 0.45 0.15
4415 5 0.4 0.45 0.15
4416 6 0.4 0.45 0.15
4417 5 0.45 0.4 0.15
4418 6 0.45 0.4 0.15
4419 5 0.45 0.45 0.1
4420 6 0.45 0.45 0.1
4421 1 0.4 0.4 0.2
4422 2 0.4 0.4 0.2
4423 3 0.45 0.45 0.25
4424 4 0.45 0.45 0.25
4425 5 0.4 0.45 0.25
4426 6 0.4 0.45 0.25
4427 5 0.45 0.4 0.25
4428 6 0.45 0.4 0.25
4429 5 0.45 0.45 0.2
4430 6 0.45 0.45 0.2
4431 1 0.4 0.4 0.3
4432 2 0.4 0.4 0.3
4433 3 0.45 0.45 0.35
4434 4 0.45 0.45 0.35
4435 5 0.4 0.45 0.35
4436 6 0.4 0.45 0.35
4437 5 0.45 0.4 0.35
4438 6 0.45 0.4 0.35
4439 5 0.45 0.45 0.3
4440 6 0.45 0.45 0.3
4441 1 0.4 0.4 0.4
4442 2 0.4 0.4 0.4
4443 3 0.45 0.45 0.45
4444 4 0.45 0.45 0.45
4445 5 0.4 0.45 0.45
4446 6 0.4 0.45 0.45
4447 5 0.45 0.4 0.45
4448 6 0.45 0.4 0.45
4449 5 0.45 0.45 0.4
4450 6 0.45 0.45 0.4
51 1 0 0 0.5
52 2 0 0 0.5
59 5 0.05 0.05 0.5
60 6 0.05 0.05 0.5
151 1 2.1684e-19 0.1 0.5
152 2 2.1684e-19 0.1 0.5
159 5 0.05 0.15 0.5
160 6 0.05 0.15 0.5
251 1 0 0.2 0.5
252 2 0 0.2 0.5
259 5 0.05 0.25 0.5
260 6 0.05 0.25 0.5
351 1 -2.1684e-19 0.3 0.5
352 2 -2.1684e-19 0.3 0.5
359 5 0.05 0.35 0.5
360 6 0.05 0.35 0.5
451 1 0 0.4 0.5
452 2 0 0.4 0.5
459 5 0.05 0.45 0.5
460 6 0.05 0.45 0.5
1051 1 0.1 0 0.5
1052 2 0.1 0 0.5
1059 5 0.15 0.05 0.5
1060 6 0.15 0.05 0.5
1151 1 0.1 0.1 0.5
1152 2 0.1 0.1 0.5
1159 5 0.15 0.15 0.5
1160 6 0.15 0.15 0.5
1251 1 0.1 0.2 0.5
1252 2 0.1 0.2 0.5
1259 5 0.15 0.25 0.5
1260 6 0.15 0.25 0.5
1351 1 0.1 0.3 0.5
1352 2 0.1 0.3 0.5
1359 5 0.15 0.35 0.5
1360 6 0.15 0.35 0.5
1451 1 0.1 0.4 0.5
1452 2 0.1 0.4 0.5
1459 5 0.15 0.45 0.5
1460 6 0.15 0.45 0.5
2051 1 0.2 0 0.5
4460 6 0.45 0.45 0.5
4459 5 0.45 0.45 0.5
2052 2 0.2 0 0.5
2059 5 0.25 0.05 0.5
2060 6 0.25 0.05 0.5
2151 1 0.2 0.1 0.5
2152 2 0.2 0.1 0.5
2159 5 0.25 0.15 0.5
4452 2 0.4 0.4 0.5
4451 1 0.4 0.4 0.5
2160 6 0.25 0.15 0.5
2251 1 0.2 0.2 0.5
2252 2 0.2 0.2 0.5
2259 5 0.25 0.25 0.5
2260 6 0.25 0.25 0.5
2351 1 0.2 0.3 0.5
2352 2 0.2 0.3 0.5
2359 5 0.25 0.35 0.5
2360 6 0.25 0.35 0.5
2451 1 0.2 0.4 0.5
2452 2 0.2 0.4 0.5
2459 5 0.25 0.45 0.5
2460 6 0.25 0.45 0.5
3051 1 0.3 0 0.5
3052 2 0.3 0 0.5
3059 5 0.35 0.05 0.5
3060 6 0.35 0.05 0.5
3151 1 0.3 0.1 0.5
3152 2 0.3 0.1 0.5
3159 5 0.35 0.15 0.5
3160 6 0.35 0.15 0.5
3251 1 0.3 0.2 0.5
3252 2 0.3 0.2 0.5
3259 5 0.35 0.25 0.5
3260 6 0.35 0.25 0.5
3351 1 0.3 0.3 0.5
3352 2 0.3 0.3 0.5
3359 5 0.35 0.35 0.5
3360 6 0.35 0.35 0.5
3451 1 0.3 0.4 0.5
3452 2 0.3 0.4 0.5
3459 5 0.35 0.45 0.5
3460 6 0.35 0.45 0.5
4051 1 0.4 0 0.5
4052 2 0.4 0 0.5
4059 5 0.45 0.05 0.5
4060 6 0.45 0.05 0.5
4151 1 0.4 0.1 0.5
4152 2 0.4 0.1 0.5
4159 5 0.45 0.15 0.5
4360 6 0.45 0.35 0.5
4359 5 0.45 0.35 0.5
4160 6 0.45 0.15 0.5
4251 1 0.4 0.2 0.5
4252 2 0.4 0.2 0.5
4259 5 0.45 0.25 0.5
4260 6 0.45 0.25 0.5
4351 1 0.4 0.3 0.5
4352 2 0.4 0.3 0.5
501 1 0 0.5 0
502 2 0 0.5 0
507 5 0.05 0.5 0.05
508 6 0.05 0.5 0.05
511 1 -5.42101e-20 0.5 0.1
512 2 -5.42101e-20 0.5 0.1
517 5 0.05 0.5 0.15
518 6 0.05 0.5 0.15
521 1 -3.25261e-19 0.5 0.2
522 2 -3.25261e-19 0.5 0.2
527 5 0.05 0.5 0.25
528 6 0.05 0.5 0.25
531 1 -2.1684e-19 0.5 0.3
532 2 -2.1684e-19 0.5 0.3
537 5 0.05 0.5 0.35
538 6 0.05 0.5 0.35
541 1 -2.1684e-19 0.5 0.4
542 2 -2.1684e-19 0.5 0.4
547 5 0.05 0.5 0.45
548 6 0.05 0.5 0.45
1501 1 0.1 0.5 0
1502 2 0.1 0.5 0
1507 5 0.15 0.5 0.05
1508 6 0.15 0.5 0.05
1511 1 0.1 0.5 0.1
1512 2 0.1 0.5 0.1
1517 5 0.15 0.5 0.15
1518 6 0.15 0.5 0.15
1521 1 0.1 0.5 0.2
1522 2 0.1 0.5 0.2
1527 5 0.15 0.5 0.25
1528 6 0.15 0.5 0.25
1531 1 0.1 0.5 0.3
1532 2 0.1 0.5 0.3
1537 5 0.15 0.5 0.35
1538 6 0.15 0.5 0.35
1541 1 0.1 0.5 0.4
1542 2 0.1 0.5 0.4
1547 5 0.15 0.5 0.45
1548 6 0.15 0.5 0.45
2501 1 0.2 0.5 0
2502 2 0.2 0.5 0
2507 5 0.25 0.5 0.05
2508 6 0.25 0.5 0.05
2511 1 0.2 0.5 0.1
2512 2 0.2 0.5 0.1
2517 5 0.25 0.5 0.15
2518 6 0.25 0.5 0.15
2521 1 0.2 0.5 0.2
2522 2 0.2 0.5 0.2
2527 5 0.25 0.5 0.25
2528 6 0.25 0.5 0.25
2531 1 0.2 0.5 0.3
2532 2 0.2 0.5 0.3
2537 5 0.25 0.5 0.35
2538 6 0.25 0.5 0.35
2541 1 0.2 0.5 0.4
2542 2 0.2 0.5 0.4
2547 5 0.25 0.5 0.45
2548 6 0.25 0.5 0.45
3501 1 0.3 0.5 0
3502 2 0.3 0.5 0
3507 5 0.35 0.5 0.05
3508 6 0.35 0.5 0.05
3511 1 0.3 0.5 0.1
3512 2 0.3 0.5 0.1
3517 5 0.35 0.5 0.15
3518 6 0.35 0.5 0.15
3521 1 0.3 0.5 0.2
3522 2 0.3 0.5 0.2
3527 5 0.35 0.5 0.25
3528 6 0.35 0.5 0.25
3531 1 0.3 0.5 0.3
3532 2 0.3 0.5 0.3
3537 5 0.35 0.5 0.35
3538 6 0.35 0.5 0.35
3541 1 0.3 0.5 0.4
3542 2 0.3 0.5 0.4
3547 5 0.35 0.5 0.45
3548 6 0.35 0.5 0.45
4501 1 0.4 0.5 0
4502 2 0.4 0.5 0
4507 5 0.45 0.5 0.05
4508 6 0.45 0.5 0.05
4511 1 0.4 0.5 0.1
4512 2 0.4 0.5 0.1
4517 5 0.45 0.5 0.15
4518 6 0.45 0.5 0.15
4521 1 0.4 0.5 0.2
4522 2 0.4 0.5 0.2
4527 5 0.45 0.5 0.25
4528 6 0.45 0.5 0.25
4531 1 0.4 0.5 0.3
4532 2 0.4 0.5 0.3
4537 5 0.45 0.5 0.35
4538 6 0.45 0.5 0.35