ITEM: TIMESTEP
0
ITEM: NUMBER OF ATOMS
10
ITEM: BOX BOUNDS xy xz yz pp pp ss
0.0000000000000000e+00 4.0365952783983996e+00 1.3297639199200000e-02
0.0000000000000000e+00 4.0232976391991997e+00 1.3297639199200000e-02
3.5597453655242320e-03 2.0353324687149588e+00 1.3297639199200000e-02
ITEM: ATOMS id type f_AVE_ATOM[1] f_AVE_ATOM[2] f_AVE_ATOM[3] 
9 5 0 0 0 
10 6 0 0 0 
3 3 0 0 0 
4 4 0 0 0 
5 5 0 0 0 
6 6 0 0 0 
7 5 0 0 0 
8 6 0 0 0 
1 1 0 0 0 
2 2 0 0 0 
ITEM: TIMESTEP
1
ITEM: NUMBER OF ATOMS
10
ITEM: BOX BOUNDS xy xz yz pp pp ss
0.0000000000000000e+00 4.0365952783983996e+00 1.3297639199200000e-02
0.0000000000000000e+00 4.0232976391991997e+00 1.3297639199200000e-02
3.5597453655242320e-03 2.0353324687149588e+00 1.3297639199200000e-02
ITEM: ATOMS id type f_AVE_ATOM[1] f_AVE_ATOM[2] f_AVE_ATOM[3] 
9 5 0 0 0 
10 6 0 0 0 
3 3 0 0 0 
4 4 0 0 0 
5 5 0 0 0 
6 6 0 0 0 
7 5 0 0 0 
8 6 0 0 0 
1 1 0 0 0 
2 2 0 0 0 
