LAMMPS Description

     40000  atoms
     20000  bonds
     0  angles
     0  dihedrals
     0  impropers

     6  atom types
     3  bond types

  0.0 40.1 xlo xhi
  0.0 40.1 ylo yhi
  0.0 160.4 zlo zhi

Masses

      1		135.327
      2	002.000
      3		045.867
      4	002.000
      5	013.9994
      6	002.0000

Atoms # full

1 1 1 05.042 0.0 0.0 0.0
2 1 2 -2.870 0.0 0.0 0.0
3 2 3 04.616 2.005 2.005 2.005
4 2 4 -1.544 2.005 2.005 2.005
5 3 5 00.970 0.0 2.005 2.005
6 3 6 -2.718 0.0 2.005 2.005
7 4 5 00.970 2.005 0.0 2.005
8 4 6 -2.718 2.005 0.0 2.005
9 5 5 00.970 2.005 2.005 0.0
10 5 6 -2.718 2.005 2.005 0.0
11 6 1 05.042 0.0 0.0 4.01
12 6 2 -2.870 0.0 0.0 4.01
13 7 3 04.616 2.005 2.005 6.015
14 7 4 -1.544 2.005 2.005 6.015
15 8 5 00.970 0.0 2.005 6.015
16 8 6 -2.718 0.0 2.005 6.015
17 9 5 00.970 2.005 0.0 6.015
18 9 6 -2.718 2.005 0.0 6.015
19 10 5 00.970 2.005 2.005 4.01
20 10 6 -2.718 2.005 2.005 4.01
21 11 1 05.042 0.0 0.0 8.02
22 11 2 -2.870 0.0 0.0 8.02
23 12 3 04.616 2.005 2.005 10.025
24 12 4 -1.544 2.005 2.005 10.025
25 13 5 00.970 0.0 2.005 10.025
26 13 6 -2.718 0.0 2.005 10.025
27 14 5 00.970 2.005 0.0 10.025
28 14 6 -2.718 2.005 0.0 10.025
29 15 5 00.970 2.005 2.005 8.02
30 15 6 -2.718 2.005 2.005 8.02
31 16 1 05.042 0.0 0.0 12.03
32 16 2 -2.870 0.0 0.0 12.03
33 17 3 04.616 2.005 2.005 14.035
34 17 4 -1.544 2.005 2.005 14.035
35 18 5 00.970 0.0 2.005 14.035
36 18 6 -2.718 0.0 2.005 14.035
37 19 5 00.970 2.005 0.0 14.035
38 19 6 -2.718 2.005 0.0 14.035
39 20 5 00.970 2.005 2.005 12.03
40 20 6 -2.718 2.005 2.005 12.03
41 21 1 05.042 0.0 0.0 16.04
42 21 2 -2.870 0.0 0.0 16.04
43 22 3 04.616 2.005 2.005 18.045
44 22 4 -1.544 2.005 2.005 18.045
45 23 5 00.970 0.0 2.005 18.045
46 23 6 -2.718 0.0 2.005 18.045
47 24 5 00.970 2.005 0.0 18.045
48 24 6 -2.718 2.005 0.0 18.045
49 25 5 00.970 2.005 2.005 16.04
50 25 6 -2.718 2.005 2.005 16.04
51 26 1 05.042 0.0 0.0 20.05
52 26 2 -2.870 0.0 0.0 20.05
53 27 3 04.616 2.005 2.005 22.055
54 27 4 -1.544 2.005 2.005 22.055
55 28 5 00.970 0.0 2.005 22.055
56 28 6 -2.718 0.0 2.005 22.055
57 29 5 00.970 2.005 0.0 22.055
58 29 6 -2.718 2.005 0.0 22.055
59 30 5 00.970 2.005 2.005 20.05
60 30 6 -2.718 2.005 2.005 20.05
61 31 1 05.042 0.0 0.0 24.06
62 31 2 -2.870 0.0 0.0 24.06
63 32 3 04.616 2.005 2.005 26.065
64 32 4 -1.544 2.005 2.005 26.065
65 33 5 00.970 0.0 2.005 26.065
66 33 6 -2.718 0.0 2.005 26.065
67 34 5 00.970 2.005 0.0 26.065
68 34 6 -2.718 2.005 0.0 26.065
69 35 5 00.970 2.005 2.005 24.06
70 35 6 -2.718 2.005 2.005 24.06
71 36 1 05.042 0.0 0.0 28.07
72 36 2 -2.870 0.0 0.0 28.07
73 37 3 04.616 2.005 2.005 30.075
74 37 4 -1.544 2.005 2.005 30.075
75 38 5 00.970 0.0 2.005 30.075
76 38 6 -2.718 0.0 2.005 30.075
77 39 5 00.970 2.005 0.0 30.075
78 39 6 -2.718 2.005 0.0 30.075
79 40 5 00.970 2.005 2.005 28.07
80 40 6 -2.718 2.005 2.005 28.07
81 41 1 05.042 0.0 0.0 32.08
82 41 2 -2.870 0.0 0.0 32.08
83 42 3 04.616 2.005 2.005 34.085
84 42 4 -1.544 2.005 2.005 34.085
85 43 5 00.970 0.0 2.005 34.085
86 43 6 -2.718 0.0 2.005 34.085
87 44 5 00.970 2.005 0.0 34.085
88 44 6 -2.718 2.005 0.0 34.085
89 45 5 00.970 2.005 2.005 32.08
90 45 6 -2.718 2.005 2.005 32.08
91 46 1 05.042 0.0 0.0 36.09
92 46 2 -2.870 0.0 0.0 36.09
93 47 3 04.616 2.005 2.005 38.095
94 47 4 -1.544 2.005 2.005 38.095
95 48 5 00.970 0.0 2.005 38.095
96 48 6 -2.718 0.0 2.005 38.095
97 49 5 00.970 2.005 0.0 38.095
98 49 6 -2.718 2.005 0.0 38.095
99 50 5 00.970 2.005 2.005 36.09
100 50 6 -2.718 2.005 2.005 36.09
101 51 1 05.042 0.0 0.0 40.1
102 51 2 -2.870 0.0 0.0 40.1
103 52 3 04.616 2.005 2.005 42.105
104 52 4 -1.544 2.005 2.005 42.105
105 53 5 00.970 0.0 2.005 42.105
106 53 6 -2.718 0.0 2.005 42.105
107 54 5 00.970 2.005 0.0 42.105
108 54 6 -2.718 2.005 0.0 42.105
109 55 5 00.970 2.005 2.005 40.1
110 55 6 -2.718 2.005 2.005 40.1
111 56 1 05.042 0.0 0.0 44.11
112 56 2 -2.870 0.0 0.0 44.11
113 57 3 04.616 2.005 2.005 46.115
114 57 4 -1.544 2.005 2.005 46.115
115 58 5 00.970 0.0 2.005 46.115
116 58 6 -2.718 0.0 2.005 46.115
117 59 5 00.970 2.005 0.0 46.115
118 59 6 -2.718 2.005 0.0 46.115
119 60 5 00.970 2.005 2.005 44.11
120 60 6 -2.718 2.005 2.005 44.11
121 61 1 05.042 0.0 0.0 48.12
122 61 2 -2.870 0.0 0.0 48.12
123 62 3 04.616 2.005 2.005 50.125
124 62 4 -1.544 2.005 2.005 50.125
125 63 5 00.970 0.0 2.005 50.125
126 63 6 -2.718 0.0 2.005 50.125
127 64 5 00.970 2.005 0.0 50.125
128 64 6 -2.718 2.005 0.0 50.125
129 65 5 00.970 2.005 2.005 48.12
130 65 6 -2.718 2.005 2.005 48.12
131 66 1 05.042 0.0 0.0 52.13
132 66 2 -2.870 0.0 0.0 52.13
133 67 3 04.616 2.005 2.005 54.135
134 67 4 -1.544 2.005 2.005 54.135
135 68 5 00.970 0.0 2.005 54.135
136 68 6 -2.718 0.0 2.005 54.135
137 69 5 00.970 2.005 0.0 54.135
138 69 6 -2.718 2.005 0.0 54.135
139 70 5 00.970 2.005 2.005 52.13
140 70 6 -2.718 2.005 2.005 52.13
141 71 1 05.042 0.0 0.0 56.14
142 71 2 -2.870 0.0 0.0 56.14
143 72 3 04.616 2.005 2.005 58.145
144 72 4 -1.544 2.005 2.005 58.145
145 73 5 00.970 0.0 2.005 58.145
146 73 6 -2.718 0.0 2.005 58.145
147 74 5 00.970 2.005 0.0 58.145
148 74 6 -2.718 2.005 0.0 58.145
149 75 5 00.970 2.005 2.005 56.14
150 75 6 -2.718 2.005 2.005 56.14
151 76 1 05.042 0.0 0.0 60.15
152 76 2 -2.870 0.0 0.0 60.15
153 77 3 04.616 2.005 2.005 62.155
154 77 4 -1.544 2.005 2.005 62.155
155 78 5 00.970 0.0 2.005 62.155
156 78 6 -2.718 0.0 2.005 62.155
157 79 5 00.970 2.005 0.0 62.155
158 79 6 -2.718 2.005 0.0 62.155
159 80 5 00.970 2.005 2.005 60.15
160 80 6 -2.718 2.005 2.005 60.15
161 81 1 05.042 0.0 0.0 64.16
162 81 2 -2.870 0.0 0.0 64.16
163 82 3 04.616 2.005 2.005 66.165
164 82 4 -1.544 2.005 2.005 66.165
165 83 5 00.970 0.0 2.005 66.165
166 83 6 -2.718 0.0 2.005 66.165
167 84 5 00.970 2.005 0.0 66.165
168 84 6 -2.718 2.005 0.0 66.165
169 85 5 00.970 2.005 2.005 64.16
170 85 6 -2.718 2.005 2.005 64.16
171 86 1 05.042 0.0 0.0 68.17
172 86 2 -2.870 0.0 0.0 68.17
173 87 3 04.616 2.005 2.005 70.175
174 87 4 -1.544 2.005 2.005 70.175
175 88 5 00.970 0.0 2.005 70.175
176 88 6 -2.718 0.0 2.005 70.175
177 89 5 00.970 2.005 0.0 70.175
178 89 6 -2.718 2.005 0.0 70.175
179 90 5 00.970 2.005 2.005 68.17
180 90 6 -2.718 2.005 2.005 68.17
181 91 1 05.042 0.0 0.0 72.18
182 91 2 -2.870 0.0 0.0 72.18
183 92 3 04.616 2.005 2.005 74.185
184 92 4 -1.544 2.005 2.005 74.185
185 93 5 00.970 0.0 2.005 74.185
186 93 6 -2.718 0.0 2.005 74.185
187 94 5 00.970 2.005 0.0 74.185
188 94 6 -2.718 2.005 0.0 74.185
189 95 5 00.970 2.005 2.005 72.18
190 95 6 -2.718 2.005 2.005 72.18
191 96 1 05.042 0.0 0.0 76.19
192 96 2 -2.870 0.0 0.0 76.19
193 97 3 04.616 2.005 2.005 78.195
194 97 4 -1.544 2.005 2.005 78.195
195 98 5 00.970 0.0 2.005 78.195
196 98 6 -2.718 0.0 2.005 78.195
197 99 5 00.970 2.005 0.0 78.195
198 99 6 -2.718 2.005 0.0 78.195
199 100 5 00.970 2.005 2.005 76.19
200 100 6 -2.718 2.005 2.005 76.19
201 101 1 05.042 0.0 0.0 80.2
202 101 2 -2.870 0.0 0.0 80.2
203 102 3 04.616 2.005 2.005 82.205
204 102 4 -1.544 2.005 2.005 82.205
205 103 5 00.970 0.0 2.005 82.205
206 103 6 -2.718 0.0 2.005 82.205
207 104 5 00.970 2.005 0.0 82.205
208 104 6 -2.718 2.005 0.0 82.205
209 105 5 00.970 2.005 2.005 80.2
210 105 6 -2.718 2.005 2.005 80.2
211 106 1 05.042 0.0 0.0 84.21
212 106 2 -2.870 0.0 0.0 84.21
213 107 3 04.616 2.005 2.005 86.215
214 107 4 -1.544 2.005 2.005 86.215
215 108 5 00.970 0.0 2.005 86.215
216 108 6 -2.718 0.0 2.005 86.215
217 109 5 00.970 2.005 0.0 86.215
218 109 6 -2.718 2.005 0.0 86.215
219 110 5 00.970 2.005 2.005 84.21
220 110 6 -2.718 2.005 2.005 84.21
221 111 1 05.042 0.0 0.0 88.22
222 111 2 -2.870 0.0 0.0 88.22
223 112 3 04.616 2.005 2.005 90.225
224 112 4 -1.544 2.005 2.005 90.225
225 113 5 00.970 0.0 2.005 90.225
226 113 6 -2.718 0.0 2.005 90.225
227 114 5 00.970 2.005 0.0 90.225
228 114 6 -2.718 2.005 0.0 90.225
229 115 5 00.970 2.005 2.005 88.22
230 115 6 -2.718 2.005 2.005 88.22
231 116 1 05.042 0.0 0.0 92.23
232 116 2 -2.870 0.0 0.0 92.23
233 117 3 04.616 2.005 2.005 94.235
234 117 4 -1.544 2.005 2.005 94.235
235 118 5 00.970 0.0 2.005 94.235
236 118 6 -2.718 0.0 2.005 94.235
237 119 5 00.970 2.005 0.0 94.235
238 119 6 -2.718 2.005 0.0 94.235
239 120 5 00.970 2.005 2.005 92.23
240 120 6 -2.718 2.005 2.005 92.23
241 121 1 05.042 0.0 0.0 96.24
242 121 2 -2.870 0.0 0.0 96.24
243 122 3 04.616 2.005 2.005 98.245
244 122 4 -1.544 2.005 2.005 98.245
245 123 5 00.970 0.0 2.005 98.245
246 123 6 -2.718 0.0 2.005 98.245
247 124 5 00.970 2.005 0.0 98.245
248 124 6 -2.718 2.005 0.0 98.245
249 125 5 00.970 2.005 2.005 96.24
250 125 6 -2.718 2.005 2.005 96.24
251 126 1 05.042 0.0 0.0 100.25
252 126 2 -2.870 0.0 0.0 100.25
253 127 3 04.616 2.005 2.005 102.255
254 127 4 -1.544 2.005 2.005 102.255
255 128 5 00.970 0.0 2.005 102.255
256 128 6 -2.718 0.0 2.005 102.255
257 129 5 00.970 2.005 0.0 102.255
258 129 6 -2.718 2.005 0.0 102.255
259 130 5 00.970 2.005 2.005 100.25
260 130 6 -2.718 2.005 2.005 100.25
261 131 1 05.042 0.0 0.0 104.26
262 131 2 -2.870 0.0 0.0 104.26
263 132 3 04.616 2.005 2.005 106.265
264 132 4 -1.544 2.005 2.005 106.265
265 133 5 00.970 0.0 2.005 106.265
266 133 6 -2.718 0.0 2.005 106.265
267 134 5 00.970 2.005 0.0 106.265
268 134 6 -2.718 2.005 0.0 106.265
269 135 5 00.970 2.005 2.005 104.26
270 135 6 -2.718 2.005 2.005 104.26
271 136 1 05.042 0.0 0.0 108.27
272 136 2 -2.870 0.0 0.0 108.27
273 137 3 04.616 2.005 2.005 110.275
274 137 4 -1.544 2.005 2.005 110.275
275 138 5 00.970 0.0 2.005 110.275
276 138 6 -2.718 0.0 2.005 110.275
277 139 5 00.970 2.005 0.0 110.275
278 139 6 -2.718 2.005 0.0 110.275
279 140 5 00.970 2.005 2.005 108.27
280 140 6 -2.718 2.005 2.005 108.27
281 141 1 05.042 0.0 0.0 112.28
282 141 2 -2.870 0.0 0.0 112.28
283 142 3 04.616 2.005 2.005 114.285
284 142 4 -1.544 2.005 2.005 114.285
285 143 5 00.970 0.0 2.005 114.285
286 143 6 -2.718 0.0 2.005 114.285
287 144 5 00.970 2.005 0.0 114.285
288 144 6 -2.718 2.005 0.0 114.285
289 145 5 00.970 2.005 2.005 112.28
290 145 6 -2.718 2.005 2.005 112.28
291 146 1 05.042 0.0 0.0 116.29
292 146 2 -2.870 0.0 0.0 116.29
293 147 3 04.616 2.005 2.005 118.295
294 147 4 -1.544 2.005 2.005 118.295
295 148 5 00.970 0.0 2.005 118.295
296 148 6 -2.718 0.0 2.005 118.295
297 149 5 00.970 2.005 0.0 118.295
298 149 6 -2.718 2.005 0.0 118.295
299 150 5 00.970 2.005 2.005 116.29
300 150 6 -2.718 2.005 2.005 116.29
301 151 1 05.042 0.0 0.0 120.3
302 151 2 -2.870 0.0 0.0 120.3
303 152 3 04.616 2.005 2.005 122.305
304 152 4 -1.544 2.005 2.005 122.305
305 153 5 00.970 0.0 2.005 122.305
306 153 6 -2.718 0.0 2.005 122.305
307 154 5 00.970 2.005 0.0 122.305
308 154 6 -2.718 2.005 0.0 122.305
309 155 5 00.970 2.005 2.005 120.3
310 155 6 -2.718 2.005 2.005 120.3
311 156 1 05.042 0.0 0.0 124.31
312 156 2 -2.870 0.0 0.0 124.31
313 157 3 04.616 2.005 2.005 126.315
314 157 4 -1.544 2.005 2.005 126.315
315 158 5 00.970 0.0 2.005 126.315
316 158 6 -2.718 0.0 2.005 126.315
317 159 5 00.970 2.005 0.0 126.315
318 159 6 -2.718 2.005 0.0 126.315
319 160 5 00.970 2.005 2.005 124.31
320 160 6 -2.718 2.005 2.005 124.31
321 161 1 05.042 0.0 0.0 128.32
322 161 2 -2.870 0.0 0.0 128.32
323 162 3 04.616 2.005 2.005 130.325
324 162 4 -1.544 2.005 2.005 130.325
325 163 5 00.970 0.0 2.005 130.325
326 163 6 -2.718 0.0 2.005 130.325
327 164 5 00.970 2.005 0.0 130.325
328 164 6 -2.718 2.005 0.0 130.325
329 165 5 00.970 2.005 2.005 128.32
330 165 6 -2.718 2.005 2.005 128.32
331 166 1 05.042 0.0 0.0 132.33
332 166 2 -2.870 0.0 0.0 132.33
333 167 3 04.616 2.005 2.005 134.335
334 167 4 -1.544 2.005 2.005 134.335
335 168 5 00.970 0.0 2.005 134.335
336 168 6 -2.718 0.0 2.005 134.335
337 169 5 00.970 2.005 0.0 134.335
338 169 6 -2.718 2.005 0.0 134.335
339 170 5 00.970 2.005 2.005 132.33
340 170 6 -2.718 2.005 2.005 132.33
341 171 1 05.042 0.0 0.0 136.34
342 171 2 -2.870 0.0 0.0 136.34
343 172 3 04.616 2.005 2.005 138.345
344 172 4 -1.544 2.005 2.005 138.345
345 173 5 00.970 0.0 2.005 138.345
346 173 6 -2.718 0.0 2.005 138.345
347 174 5 00.970 2.005 0.0 138.345
348 174 6 -2.718 2.005 0.0 138.345
349 175 5 00.970 2.005 2.005 136.34
350 175 6 -2.718 2.005 2.005 136.34
351 176 1 05.042 0.0 0.0 140.35
352 176 2 -2.870 0.0 0.0 140.35
353 177 3 04.616 2.005 2.005 142.355
354 177 4 -1.544 2.005 2.005 142.355
355 178 5 00.970 0.0 2.005 142.355
356 178 6 -2.718 0.0 2.005 142.355
357 179 5 00.970 2.005 0.0 142.355
358 179 6 -2.718 2.005 0.0 142.355
359 180 5 00.970 2.005 2.005 140.35
360 180 6 -2.718 2.005 2.005 140.35
361 181 1 05.042 0.0 0.0 144.36
362 181 2 -2.870 0.0 0.0 144.36
363 182 3 04.616 2.005 2.005 146.365
364 182 4 -1.544 2.005 2.005 146.365
365 183 5 00.970 0.0 2.005 146.365
366 183 6 -2.718 0.0 2.005 146.365
367 184 5 00.970 2.005 0.0 146.365
368 184 6 -2.718 2.005 0.0 146.365
369 185 5 00.970 2.005 2.005 144.36
370 185 6 -2.718 2.005 2.005 144.36
371 186 1 05.042 0.0 0.0 148.37
372 186 2 -2.870 0.0 0.0 148.37
373 187 3 04.616 2.005 2.005 150.375
374 187 4 -1.544 2.005 2.005 150.375
375 188 5 00.970 0.0 2.005 150.375
376 188 6 -2.718 0.0 2.005 150.375
377 189 5 00.970 2.005 0.0 150.375
378 189 6 -2.718 2.005 0.0 150.375
379 190 5 00.970 2.005 2.005 148.37
380 190 6 -2.718 2.005 2.005 148.37
381 191 1 05.042 0.0 0.0 152.38
382 191 2 -2.870 0.0 0.0 152.38
383 192 3 04.616 2.005 2.005 154.385
384 192 4 -1.544 2.005 2.005 154.385
385 193 5 00.970 0.0 2.005 154.385
386 193 6 -2.718 0.0 2.005 154.385
387 194 5 00.970 2.005 0.0 154.385
388 194 6 -2.718 2.005 0.0 154.385
389 195 5 00.970 2.005 2.005 152.38
390 195 6 -2.718 2.005 2.005 152.38
391 196 1 05.042 0.0 0.0 156.39
392 196 2 -2.870 0.0 0.0 156.39
393 197 3 04.616 2.005 2.005 158.395
394 197 4 -1.544 2.005 2.005 158.395
395 198 5 00.970 0.0 2.005 158.395
396 198 6 -2.718 0.0 2.005 158.395
397 199 5 00.970 2.005 0.0 158.395
398 199 6 -2.718 2.005 0.0 158.395
399 200 5 00.970 2.005 2.005 156.39
400 200 6 -2.718 2.005 2.005 156.39
401 201 1 05.042 0.0 4.01 0.0
402 201 2 -2.870 0.0 4.01 0.0
403 202 3 04.616 2.005 6.015 2.005
404 202 4 -1.544 2.005 6.015 2.005
405 203 5 00.970 0.0 6.015 2.005
406 203 6 -2.718 0.0 6.015 2.005
407 204 5 00.970 2.005 4.01 2.005
408 204 6 -2.718 2.005 4.01 2.005
409 205 5 00.970 2.005 6.015 0.0
410 205 6 -2.718 2.005 6.015 0.0
411 206 1 05.042 0.0 4.01 4.01
412 206 2 -2.870 0.0 4.01 4.01
413 207 3 04.616 2.005 6.015 6.015
414 207 4 -1.544 2.005 6.015 6.015
415 208 5 00.970 0.0 6.015 6.015
416 208 6 -2.718 0.0 6.015 6.015
417 209 5 00.970 2.005 4.01 6.015
418 209 6 -2.718 2.005 4.01 6.015
419 210 5 00.970 2.005 6.015 4.01
420 210 6 -2.718 2.005 6.015 4.01
421 211 1 05.042 0.0 4.01 8.02
422 211 2 -2.870 0.0 4.01 8.02
423 212 3 04.616 2.005 6.015 10.025
424 212 4 -1.544 2.005 6.015 10.025
425 213 5 00.970 0.0 6.015 10.025
426 213 6 -2.718 0.0 6.015 10.025
427 214 5 00.970 2.005 4.01 10.025
428 214 6 -2.718 2.005 4.01 10.025
429 215 5 00.970 2.005 6.015 8.02
430 215 6 -2.718 2.005 6.015 8.02
431 216 1 05.042 0.0 4.01 12.03
432 216 2 -2.870 0.0 4.01 12.03
433 217 3 04.616 2.005 6.015 14.035
434 217 4 -1.544 2.005 6.015 14.035
435 218 5 00.970 0.0 6.015 14.035
436 218 6 -2.718 0.0 6.015 14.035
437 219 5 00.970 2.005 4.01 14.035
438 219 6 -2.718 2.005 4.01 14.035
439 220 5 00.970 2.005 6.015 12.03
440 220 6 -2.718 2.005 6.015 12.03
441 221 1 05.042 0.0 4.01 16.04
442 221 2 -2.870 0.0 4.01 16.04
443 222 3 04.616 2.005 6.015 18.045
444 222 4 -1.544 2.005 6.015 18.045
445 223 5 00.970 0.0 6.015 18.045
446 223 6 -2.718 0.0 6.015 18.045
447 224 5 00.970 2.005 4.01 18.045
448 224 6 -2.718 2.005 4.01 18.045
449 225 5 00.970 2.005 6.015 16.04
450 225 6 -2.718 2.005 6.015 16.04
451 226 1 05.042 0.0 4.01 20.05
452 226 2 -2.870 0.0 4.01 20.05
453 227 3 04.616 2.005 6.015 22.055
454 227 4 -1.544 2.005 6.015 22.055
455 228 5 00.970 0.0 6.015 22.055
456 228 6 -2.718 0.0 6.015 22.055
457 229 5 00.970 2.005 4.01 22.055
458 229 6 -2.718 2.005 4.01 22.055
459 230 5 00.970 2.005 6.015 20.05
460 230 6 -2.718 2.005 6.015 20.05
461 231 1 05.042 0.0 4.01 24.06
462 231 2 -2.870 0.0 4.01 24.06
463 232 3 04.616 2.005 6.015 26.065
464 232 4 -1.544 2.005 6.015 26.065
465 233 5 00.970 0.0 6.015 26.065
466 233 6 -2.718 0.0 6.015 26.065
467 234 5 00.970 2.005 4.01 26.065
468 234 6 -2.718 2.005 4.01 26.065
469 235 5 00.970 2.005 6.015 24.06
470 235 6 -2.718 2.005 6.015 24.06
471 236 1 05.042 0.0 4.01 28.07
472 236 2 -2.870 0.0 4.01 28.07
473 237 3 04.616 2.005 6.015 30.075
474 237 4 -1.544 2.005 6.015 30.075
475 238 5 00.970 0.0 6.015 30.075
476 238 6 -2.718 0.0 6.015 30.075
477 239 5 00.970 2.005 4.01 30.075
478 239 6 -2.718 2.005 4.01 30.075
479 240 5 00.970 2.005 6.015 28.07
480 240 6 -2.718 2.005 6.015 28.07
481 241 1 05.042 0.0 4.01 32.08
482 241 2 -2.870 0.0 4.01 32.08
483 242 3 04.616 2.005 6.015 34.085
484 242 4 -1.544 2.005 6.015 34.085
485 243 5 00.970 0.0 6.015 34.085
486 243 6 -2.718 0.0 6.015 34.085
487 244 5 00.970 2.005 4.01 34.085
488 244 6 -2.718 2.005 4.01 34.085
489 245 5 00.970 2.005 6.015 32.08
490 245 6 -2.718 2.005 6.015 32.08
491 246 1 05.042 0.0 4.01 36.09
492 246 2 -2.870 0.0 4.01 36.09
493 247 3 04.616 2.005 6.015 38.095
494 247 4 -1.544 2.005 6.015 38.095
495 248 5 00.970 0.0 6.015 38.095
496 248 6 -2.718 0.0 6.015 38.095
497 249 5 00.970 2.005 4.01 38.095
498 249 6 -2.718 2.005 4.01 38.095
499 250 5 00.970 2.005 6.015 36.09
500 250 6 -2.718 2.005 6.015 36.09
501 251 1 05.042 0.0 4.01 40.1
502 251 2 -2.870 0.0 4.01 40.1
503 252 3 04.616 2.005 6.015 42.105
504 252 4 -1.544 2.005 6.015 42.105
505 253 5 00.970 0.0 6.015 42.105
506 253 6 -2.718 0.0 6.015 42.105
507 254 5 00.970 2.005 4.01 42.105
508 254 6 -2.718 2.005 4.01 42.105
509 255 5 00.970 2.005 6.015 40.1
510 255 6 -2.718 2.005 6.015 40.1
511 256 1 05.042 0.0 4.01 44.11
512 256 2 -2.870 0.0 4.01 44.11
513 257 3 04.616 2.005 6.015 46.115
514 257 4 -1.544 2.005 6.015 46.115
515 258 5 00.970 0.0 6.015 46.115
516 258 6 -2.718 0.0 6.015 46.115
517 259 5 00.970 2.005 4.01 46.115
518 259 6 -2.718 2.005 4.01 46.115
519 260 5 00.970 2.005 6.015 44.11
520 260 6 -2.718 2.005 6.015 44.11
521 261 1 05.042 0.0 4.01 48.12
522 261 2 -2.870 0.0 4.01 48.12
523 262 3 04.616 2.005 6.015 50.125
524 262 4 -1.544 2.005 6.015 50.125
525 263 5 00.970 0.0 6.015 50.125
526 263 6 -2.718 0.0 6.015 50.125
527 264 5 00.970 2.005 4.01 50.125
528 264 6 -2.718 2.005 4.01 50.125
529 265 5 00.970 2.005 6.015 48.12
530 265 6 -2.718 2.005 6.015 48.12
531 266 1 05.042 0.0 4.01 52.13
532 266 2 -2.870 0.0 4.01 52.13
533 267 3 04.616 2.005 6.015 54.135
534 267 4 -1.544 2.005 6.015 54.135
535 268 5 00.970 0.0 6.015 54.135
536 268 6 -2.718 0.0 6.015 54.135
537 269 5 00.970 2.005 4.01 54.135
538 269 6 -2.718 2.005 4.01 54.135
539 270 5 00.970 2.005 6.015 52.13
540 270 6 -2.718 2.005 6.015 52.13
541 271 1 05.042 0.0 4.01 56.14
542 271 2 -2.870 0.0 4.01 56.14
543 272 3 04.616 2.005 6.015 58.145
544 272 4 -1.544 2.005 6.015 58.145
545 273 5 00.970 0.0 6.015 58.145
546 273 6 -2.718 0.0 6.015 58.145
547 274 5 00.970 2.005 4.01 58.145
548 274 6 -2.718 2.005 4.01 58.145
549 275 5 00.970 2.005 6.015 56.14
550 275 6 -2.718 2.005 6.015 56.14
551 276 1 05.042 0.0 4.01 60.15
552 276 2 -2.870 0.0 4.01 60.15
553 277 3 04.616 2.005 6.015 62.155
554 277 4 -1.544 2.005 6.015 62.155
555 278 5 00.970 0.0 6.015 62.155
556 278 6 -2.718 0.0 6.015 62.155
557 279 5 00.970 2.005 4.01 62.155
558 279 6 -2.718 2.005 4.01 62.155
559 280 5 00.970 2.005 6.015 60.15
560 280 6 -2.718 2.005 6.015 60.15
561 281 1 05.042 0.0 4.01 64.16
562 281 2 -2.870 0.0 4.01 64.16
563 282 3 04.616 2.005 6.015 66.165
564 282 4 -1.544 2.005 6.015 66.165
565 283 5 00.970 0.0 6.015 66.165
566 283 6 -2.718 0.0 6.015 66.165
567 284 5 00.970 2.005 4.01 66.165
568 284 6 -2.718 2.005 4.01 66.165
569 285 5 00.970 2.005 6.015 64.16
570 285 6 -2.718 2.005 6.015 64.16
571 286 1 05.042 0.0 4.01 68.17
572 286 2 -2.870 0.0 4.01 68.17
573 287 3 04.616 2.005 6.015 70.175
574 287 4 -1.544 2.005 6.015 70.175
575 288 5 00.970 0.0 6.015 70.175
576 288 6 -2.718 0.0 6.015 70.175
577 289 5 00.970 2.005 4.01 70.175
578 289 6 -2.718 2.005 4.01 70.175
579 290 5 00.970 2.005 6.015 68.17
580 290 6 -2.718 2.005 6.015 68.17
581 291 1 05.042 0.0 4.01 72.18
582 291 2 -2.870 0.0 4.01 72.18
583 292 3 04.616 2.005 6.015 74.185
584 292 4 -1.544 2.005 6.015 74.185
585 293 5 00.970 0.0 6.015 74.185
586 293 6 -2.718 0.0 6.015 74.185
587 294 5 00.970 2.005 4.01 74.185
588 294 6 -2.718 2.005 4.01 74.185
589 295 5 00.970 2.005 6.015 72.18
590 295 6 -2.718 2.005 6.015 72.18
591 296 1 05.042 0.0 4.01 76.19
592 296 2 -2.870 0.0 4.01 76.19
593 297 3 04.616 2.005 6.015 78.195
594 297 4 -1.544 2.005 6.015 78.195
595 298 5 00.970 0.0 6.015 78.195
596 298 6 -2.718 0.0 6.015 78.195
597 299 5 00.970 2.005 4.01 78.195
598 299 6 -2.718 2.005 4.01 78.195
599 300 5 00.970 2.005 6.015 76.19
600 300 6 -2.718 2.005 6.015 76.19
601 301 1 05.042 0.0 4.01 80.2
602 301 2 -2.870 0.0 4.01 80.2
603 302 3 04.616 2.005 6.015 82.205
604 302 4 -1.544 2.005 6.015 82.205
605 303 5 00.970 0.0 6.015 82.205
606 303 6 -2.718 0.0 6.015 82.205
607 304 5 00.970 2.005 4.01 82.205
608 304 6 -2.718 2.005 4.01 82.205
609 305 5 00.970 2.005 6.015 80.2
610 305 6 -2.718 2.005 6.015 80.2
611 306 1 05.042 0.0 4.01 84.21
612 306 2 -2.870 0.0 4.01 84.21
613 307 3 04.616 2.005 6.015 86.215
614 307 4 -1.544 2.005 6.015 86.215
615 308 5 00.970 0.0 6.015 86.215
616 308 6 -2.718 0.0 6.015 86.215
617 309 5 00.970 2.005 4.01 86.215
618 309 6 -2.718 2.005 4.01 86.215
619 310 5 00.970 2.005 6.015 84.21
620 310 6 -2.718 2.005 6.015 84.21
621 311 1 05.042 0.0 4.01 88.22
622 311 2 -2.870 0.0 4.01 88.22
623 312 3 04.616 2.005 6.015 90.225
624 312 4 -1.544 2.005 6.015 90.225
625 313 5 00.970 0.0 6.015 90.225
626 313 6 -2.718 0.0 6.015 90.225
627 314 5 00.970 2.005 4.01 90.225
628 314 6 -2.718 2.005 4.01 90.225
629 315 5 00.970 2.005 6.015 88.22
630 315 6 -2.718 2.005 6.015 88.22
631 316 1 05.042 0.0 4.01 92.23
632 316 2 -2.870 0.0 4.01 92.23
633 317 3 04.616 2.005 6.015 94.235
634 317 4 -1.544 2.005 6.015 94.235
635 318 5 00.970 0.0 6.015 94.235
636 318 6 -2.718 0.0 6.015 94.235
637 319 5 00.970 2.005 4.01 94.235
638 319 6 -2.718 2.005 4.01 94.235
639 320 5 00.970 2.005 6.015 92.23
640 320 6 -2.718 2.005 6.015 92.23
641 321 1 05.042 0.0 4.01 96.24
642 321 2 -2.870 0.0 4.01 96.24
643 322 3 04.616 2.005 6.015 98.245
644 322 4 -1.544 2.005 6.015 98.245
645 323 5 00.970 0.0 6.015 98.245
646 323 6 -2.718 0.0 6.015 98.245
647 324 5 00.970 2.005 4.01 98.245
648 324 6 -2.718 2.005 4.01 98.245
649 325 5 00.970 2.005 6.015 96.24
650 325 6 -2.718 2.005 6.015 96.24
651 326 1 05.042 0.0 4.01 100.25
652 326 2 -2.870 0.0 4.01 100.25
653 327 3 04.616 2.005 6.015 102.255
654 327 4 -1.544 2.005 6.015 102.255
655 328 5 00.970 0.0 6.015 102.255
656 328 6 -2.718 0.0 6.015 102.255
657 329 5 00.970 2.005 4.01 102.255
658 329 6 -2.718 2.005 4.01 102.255
659 330 5 00.970 2.005 6.015 100.25
660 330 6 -2.718 2.005 6.015 100.25
661 331 1 05.042 0.0 4.01 104.26
662 331 2 -2.870 0.0 4.01 104.26
663 332 3 04.616 2.005 6.015 106.265
664 332 4 -1.544 2.005 6.015 106.265
665 333 5 00.970 0.0 6.015 106.265
666 333 6 -2.718 0.0 6.015 106.265
667 334 5 00.970 2.005 4.01 106.265
668 334 6 -2.718 2.005 4.01 106.265
669 335 5 00.970 2.005 6.015 104.26
670 335 6 -2.718 2.005 6.015 104.26
671 336 1 05.042 0.0 4.01 108.27
672 336 2 -2.870 0.0 4.01 108.27
673 337 3 04.616 2.005 6.015 110.275
674 337 4 -1.544 2.005 6.015 110.275
675 338 5 00.970 0.0 6.015 110.275
676 338 6 -2.718 0.0 6.015 110.275
677 339 5 00.970 2.005 4.01 110.275
678 339 6 -2.718 2.005 4.01 110.275
679 340 5 00.970 2.005 6.015 108.27
680 340 6 -2.718 2.005 6.015 108.27
681 341 1 05.042 0.0 4.01 112.28
682 341 2 -2.870 0.0 4.01 112.28
683 342 3 04.616 2.005 6.015 114.285
684 342 4 -1.544 2.005 6.015 114.285
685 343 5 00.970 0.0 6.015 114.285
686 343 6 -2.718 0.0 6.015 114.285
687 344 5 00.970 2.005 4.01 114.285
688 344 6 -2.718 2.005 4.01 114.285
689 345 5 00.970 2.005 6.015 112.28
690 345 6 -2.718 2.005 6.015 112.28
691 346 1 05.042 0.0 4.01 116.29
692 346 2 -2.870 0.0 4.01 116.29
693 347 3 04.616 2.005 6.015 118.295
694 347 4 -1.544 2.005 6.015 118.295
695 348 5 00.970 0.0 6.015 118.295
696 348 6 -2.718 0.0 6.015 118.295
697 349 5 00.970 2.005 4.01 118.295
698 349 6 -2.718 2.005 4.01 118.295
699 350 5 00.970 2.005 6.015 116.29
700 350 6 -2.718 2.005 6.015 116.29
701 351 1 05.042 0.0 4.01 120.3
702 351 2 -2.870 0.0 4.01 120.3
703 352 3 04.616 2.005 6.015 122.305
704 352 4 -1.544 2.005 6.015 122.305
705 353 5 00.970 0.0 6.015 122.305
706 353 6 -2.718 0.0 6.015 122.305
707 354 5 00.970 2.005 4.01 122.305
708 354 6 -2.718 2.005 4.01 122.305
709 355 5 00.970 2.005 6.015 120.3
710 355 6 -2.718 2.005 6.015 120.3
711 356 1 05.042 0.0 4.01 124.31
712 356 2 -2.870 0.0 4.01 124.31
713 357 3 04.616 2.005 6.015 126.315
714 357 4 -1.544 2.005 6.015 126.315
715 358 5 00.970 0.0 6.015 126.315
716 358 6 -2.718 0.0 6.015 126.315
717 359 5 00.970 2.005 4.01 126.315
718 359 6 -2.718 2.005 4.01 126.315
719 360 5 00.970 2.005 6.015 124.31
720 360 6 -2.718 2.005 6.015 124.31
721 361 1 05.042 0.0 4.01 128.32
722 361 2 -2.870 0.0 4.01 128.32
723 362 3 04.616 2.005 6.015 130.325
724 362 4 -1.544 2.005 6.015 130.325
725 363 5 00.970 0.0 6.015 130.325
726 363 6 -2.718 0.0 6.015 130.325
727 364 5 00.970 2.005 4.01 130.325
728 364 6 -2.718 2.005 4.01 130.325
729 365 5 00.970 2.005 6.015 128.32
730 365 6 -2.718 2.005 6.015 128.32
731 366 1 05.042 0.0 4.01 132.33
732 366 2 -2.870 0.0 4.01 132.33
733 367 3 04.616 2.005 6.015 134.335
734 367 4 -1.544 2.005 6.015 134.335
735 368 5 00.970 0.0 6.015 134.335
736 368 6 -2.718 0.0 6.015 134.335
737 369 5 00.970 2.005 4.01 134.335
738 369 6 -2.718 2.005 4.01 134.335
739 370 5 00.970 2.005 6.015 132.33
740 370 6 -2.718 2.005 6.015 132.33
741 371 1 05.042 0.0 4.01 136.34
742 371 2 -2.870 0.0 4.01 136.34
743 372 3 04.616 2.005 6.015 138.345
744 372 4 -1.544 2.005 6.015 138.345
745 373 5 00.970 0.0 6.015 138.345
746 373 6 -2.718 0.0 6.015 138.345
747 374 5 00.970 2.005 4.01 138.345
748 374 6 -2.718 2.005 4.01 138.345
749 375 5 00.970 2.005 6.015 136.34
750 375 6 -2.718 2.005 6.015 136.34
751 376 1 05.042 0.0 4.01 140.35
752 376 2 -2.870 0.0 4.01 140.35
753 377 3 04.616 2.005 6.015 142.355
754 377 4 -1.544 2.005 6.015 142.355
755 378 5 00.970 0.0 6.015 142.355
756 378 6 -2.718 0.0 6.015 142.355
757 379 5 00.970 2.005 4.01 142.355
758 379 6 -2.718 2.005 4.01 142.355
759 380 5 00.970 2.005 6.015 140.35
760 380 6 -2.718 2.005 6.015 140.35
761 381 1 05.042 0.0 4.01 144.36
762 381 2 -2.870 0.0 4.01 144.36
763 382 3 04.616 2.005 6.015 146.365
764 382 4 -1.544 2.005 6.015 146.365
765 383 5 00.970 0.0 6.015 146.365
766 383 6 -2.718 0.0 6.015 146.365
767 384 5 00.970 2.005 4.01 146.365
768 384 6 -2.718 2.005 4.01 146.365
769 385 5 00.970 2.005 6.015 144.36
770 385 6 -2.718 2.005 6.015 144.36
771 386 1 05.042 0.0 4.01 148.37
772 386 2 -2.870 0.0 4.01 148.37
773 387 3 04.616 2.005 6.015 150.375
774 387 4 -1.544 2.005 6.015 150.375
775 388 5 00.970 0.0 6.015 150.375
776 388 6 -2.718 0.0 6.015 150.375
777 389 5 00.970 2.005 4.01 150.375
778 389 6 -2.718 2.005 4.01 150.375
779 390 5 00.970 2.005 6.015 148.37
780 390 6 -2.718 2.005 6.015 148.37
781 391 1 05.042 0.0 4.01 152.38
782 391 2 -2.870 0.0 4.01 152.38
783 392 3 04.616 2.005 6.015 154.385
784 392 4 -1.544 2.005 6.015 154.385
785 393 5 00.970 0.0 6.015 154.385
786 393 6 -2.718 0.0 6.015 154.385
787 394 5 00.970 2.005 4.01 154.385
788 394 6 -2.718 2.005 4.01 154.385
789 395 5 00.970 2.005 6.015 152.38
790 395 6 -2.718 2.005 6.015 152.38
791 396 1 05.042 0.0 4.01 156.39
792 396 2 -2.870 0.0 4.01 156.39
793 397 3 04.616 2.005 6.015 158.395
794 397 4 -1.544 2.005 6.015 158.395
795 398 5 00.970 0.0 6.015 158.395
796 398 6 -2.718 0.0 6.015 158.395
797 399 5 00.970 2.005 4.01 158.395
798 399 6 -2.718 2.005 4.01 158.395
799 400 5 00.970 2.005 6.015 156.39
800 400 6 -2.718 2.005 6.015 156.39
801 401 1 05.042 0.0 8.02 0.0
802 401 2 -2.870 0.0 8.02 0.0
803 402 3 04.616 2.005 10.025 2.005
804 402 4 -1.544 2.005 10.025 2.005
805 403 5 00.970 0.0 10.025 2.005
806 403 6 -2.718 0.0 10.025 2.005
807 404 5 00.970 2.005 8.02 2.005
808 404 6 -2.718 2.005 8.02 2.005
809 405 5 00.970 2.005 10.025 0.0
810 405 6 -2.718 2.005 10.025 0.0
811 406 1 05.042 0.0 8.02 4.01
812 406 2 -2.870 0.0 8.02 4.01
813 407 3 04.616 2.005 10.025 6.015
814 407 4 -1.544 2.005 10.025 6.015
815 408 5 00.970 0.0 10.025 6.015
816 408 6 -2.718 0.0 10.025 6.015
817 409 5 00.970 2.005 8.02 6.015
818 409 6 -2.718 2.005 8.02 6.015
819 410 5 00.970 2.005 10.025 4.01
820 410 6 -2.718 2.005 10.025 4.01
821 411 1 05.042 0.0 8.02 8.02
822 411 2 -2.870 0.0 8.02 8.02
823 412 3 04.616 2.005 10.025 10.025
824 412 4 -1.544 2.005 10.025 10.025
825 413 5 00.970 0.0 10.025 10.025
826 413 6 -2.718 0.0 10.025 10.025
827 414 5 00.970 2.005 8.02 10.025
828 414 6 -2.718 2.005 8.02 10.025
829 415 5 00.970 2.005 10.025 8.02
830 415 6 -2.718 2.005 10.025 8.02
831 416 1 05.042 0.0 8.02 12.03
832 416 2 -2.870 0.0 8.02 12.03
833 417 3 04.616 2.005 10.025 14.035
834 417 4 -1.544 2.005 10.025 14.035
835 418 5 00.970 0.0 10.025 14.035
836 418 6 -2.718 0.0 10.025 14.035
837 419 5 00.970 2.005 8.02 14.035
838 419 6 -2.718 2.005 8.02 14.035
839 420 5 00.970 2.005 10.025 12.03
840 420 6 -2.718 2.005 10.025 12.03
841 421 1 05.042 0.0 8.02 16.04
842 421 2 -2.870 0.0 8.02 16.04
843 422 3 04.616 2.005 10.025 18.045
844 422 4 -1.544 2.005 10.025 18.045
845 423 5 00.970 0.0 10.025 18.045
846 423 6 -2.718 0.0 10.025 18.045
847 424 5 00.970 2.005 8.02 18.045
848 424 6 -2.718 2.005 8.02 18.045
849 425 5 00.970 2.005 10.025 16.04
850 425 6 -2.718 2.005 10.025 16.04
851 426 1 05.042 0.0 8.02 20.05
852 426 2 -2.870 0.0 8.02 20.05
853 427 3 04.616 2.005 10.025 22.055
854 427 4 -1.544 2.005 10.025 22.055
855 428 5 00.970 0.0 10.025 22.055
856 428 6 -2.718 0.0 10.025 22.055
857 429 5 00.970 2.005 8.02 22.055
858 429 6 -2.718 2.005 8.02 22.055
859 430 5 00.970 2.005 10.025 20.05
860 430 6 -2.718 2.005 10.025 20.05
861 431 1 05.042 0.0 8.02 24.06
862 431 2 -2.870 0.0 8.02 24.06
863 432 3 04.616 2.005 10.025 26.065
864 432 4 -1.544 2.005 10.025 26.065
865 433 5 00.970 0.0 10.025 26.065
866 433 6 -2.718 0.0 10.025 26.065
867 434 5 00.970 2.005 8.02 26.065
868 434 6 -2.718 2.005 8.02 26.065
869 435 5 00.970 2.005 10.025 24.06